 Entering Gaussian System, Link 0=g16
 Input=MADG0131.gjf
 Output=MADG0131.log
 Initial command:
 /usr/local/g16/l1.exe "/dados_01/scratch/Gau-2133952.inp" -scrdir="/dados_01/scratch/"
 Entering Link 1 = /usr/local/g16/l1.exe PID=   2133956.
  
 Copyright (c) 1988-2017, Gaussian, Inc.  All Rights Reserved.
  
 This is part of the Gaussian(R) 16 program.  It is based on
 the Gaussian(R) 09 system (copyright 2009, Gaussian, Inc.),
 the Gaussian(R) 03 system (copyright 2003, Gaussian, Inc.),
 the Gaussian(R) 98 system (copyright 1998, Gaussian, Inc.),
 the Gaussian(R) 94 system (copyright 1995, Gaussian, Inc.),
 the Gaussian 92(TM) system (copyright 1992, Gaussian, Inc.),
 the Gaussian 90(TM) system (copyright 1990, Gaussian, Inc.),
 the Gaussian 88(TM) system (copyright 1988, Gaussian, Inc.),
 the Gaussian 86(TM) system (copyright 1986, Carnegie Mellon
 University), and the Gaussian 82(TM) system (copyright 1983,
 Carnegie Mellon University). Gaussian is a federally registered
 trademark of Gaussian, Inc.
  
 This software contains proprietary and confidential information,
 including trade secrets, belonging to Gaussian, Inc.
  
 This software is provided under written license and may be
 used, copied, transmitted, or stored only in accord with that
 written license.
  
 The following legend is applicable only to US Government
 contracts under FAR:
  
                    RESTRICTED RIGHTS LEGEND
  
 Use, reproduction and disclosure by the US Government is
 subject to restrictions as set forth in subparagraphs (a)
 and (c) of the Commercial Computer Software - Restricted
 Rights clause in FAR 52.227-19.
  
 Gaussian, Inc.
 340 Quinnipiac St., Bldg. 40, Wallingford CT 06492
  
  
 ---------------------------------------------------------------
 Warning -- This program may not be used in any manner that
 competes with the business of Gaussian, Inc. or will provide
 assistance to any competitor of Gaussian, Inc.  The licensee
 of this program is prohibited from giving any competitor of
 Gaussian, Inc. access to this program.  By using this program,
 the user acknowledges that Gaussian, Inc. is engaged in the
 business of creating and licensing software in the field of
 computational chemistry and represents and warrants to the
 licensee that it is not a competitor of Gaussian, Inc. and that
 it will not use this program in any manner prohibited above.
 ---------------------------------------------------------------
  

 Cite this work as:
 Gaussian 16, Revision B.01,
 M. J. Frisch, G. W. Trucks, H. B. Schlegel, G. E. Scuseria, 
 M. A. Robb, J. R. Cheeseman, G. Scalmani, V. Barone, 
 G. A. Petersson, H. Nakatsuji, X. Li, M. Caricato, A. V. Marenich, 
 J. Bloino, B. G. Janesko, R. Gomperts, B. Mennucci, H. P. Hratchian, 
 J. V. Ortiz, A. F. Izmaylov, J. L. Sonnenberg, D. Williams-Young, 
 F. Ding, F. Lipparini, F. Egidi, J. Goings, B. Peng, A. Petrone, 
 T. Henderson, D. Ranasinghe, V. G. Zakrzewski, J. Gao, N. Rega, 
 G. Zheng, W. Liang, M. Hada, M. Ehara, K. Toyota, R. Fukuda, 
 J. Hasegawa, M. Ishida, T. Nakajima, Y. Honda, O. Kitao, H. Nakai, 
 T. Vreven, K. Throssell, J. A. Montgomery, Jr., J. E. Peralta, 
 F. Ogliaro, M. J. Bearpark, J. J. Heyd, E. N. Brothers, K. N. Kudin, 
 V. N. Staroverov, T. A. Keith, R. Kobayashi, J. Normand, 
 K. Raghavachari, A. P. Rendell, J. C. Burant, S. S. Iyengar, 
 J. Tomasi, M. Cossi, J. M. Millam, M. Klene, C. Adamo, R. Cammi, 
 J. W. Ochterski, R. L. Martin, K. Morokuma, O. Farkas, 
 J. B. Foresman, and D. J. Fox, Gaussian, Inc., Wallingford CT, 2016.
 
 ******************************************
 Gaussian 16:  ES64L-G16RevB.01 20-Dec-2017
                20-Sep-2025 
 ******************************************
 %nprocs=16
 Will use up to   16 processors via shared memory.
 %mem=40GB
 %chk=MADG0131.chk
 ----------------------------------------------------------------------
 # opt freq=noraman M08HX/6-311++G** scf=xqc Empiricaldispersion=pfd In
 t(Grid=ultraFine)
 ----------------------------------------------------------------------
 1/18=20,19=15,26=4,38=1/1,3;
 2/9=110,12=2,17=6,18=5,40=1/2;
 3/5=4,6=6,7=1111,11=2,25=1,30=1,71=1,74=-74,75=-5,124=11/1,2,3;
 4//1;
 5/5=2,8=3,13=1,38=5/2,8;
 6/7=2,8=2,9=2,10=2,28=1/1;
 7//1,2,3,16;
 1/18=20,19=15,26=4/3(2);
 2/9=110/2;
 99//99;
 2/9=110/2;
 3/5=4,6=6,7=1111,11=2,25=1,30=1,71=1,74=-74,75=-5,124=11/1,2,3;
 4/5=5,16=3,69=1/1;
 5/5=2,8=3,13=1,38=5/2,8;
 7//1,2,3,16;
 1/18=20,19=15,26=4/3(-5);
 2/9=110/2;
 6/7=2,8=2,9=2,10=2,19=2,28=1/1;
 99/9=1/99;
 --------
 MADG0131
 --------
 Symbolic Z-matrix:
 Charge =  0 Multiplicity = 1
 O                    -0.8561   -0.6183   -0.8119 
 O                    -0.1289    2.5247    0.9715 
 O                     2.4337    1.7683   -0.0831 
 O                     2.7421   -1.1048   -0.2436 
 O                     0.2742   -1.9973    0.7505 
 O                    -3.4305    0.0957   -0.2505 
 C                     0.0504    1.5038   -0.0072 
 C                     1.4027    0.8351    0.248 
 C                    -1.0952    0.4853    0.0689 
 C                     1.5585   -0.4107   -0.6218 
 C                     0.3438   -1.3334   -0.5101 
 C                    -2.4335    1.0971   -0.3366 
 C                    -0.8612   -2.8455    0.8259 
 H                     0.0583    1.9855   -0.9935 
 H                     1.531     0.588     1.3091 
 H                    -1.1997    0.1065    1.094 
 H                     1.6851   -0.0969   -1.6652 
 H                     0.4558   -2.1139   -1.2732 
 H                    -2.4116    1.4595   -1.3697 
 H                    -2.7142    1.9246    0.3213 
 H                     0.5232    3.2231    0.794 
 H                     2.3983    2.4901    0.5668 
 H                     2.6188   -1.4274    0.6656 
 H                    -3.1669   -0.6336   -0.8375 
 H                    -0.8035   -3.4046    1.7642 
 H                    -0.8686   -3.564     0.0002 
 H                    -1.7917   -2.2712    0.8354 
 

 GradGradGradGradGradGradGradGradGradGradGradGradGradGradGradGradGradGrad
 Berny optimization.
 Initialization pass.
                           ----------------------------
                           !    Initial Parameters    !
                           ! (Angstroms and Degrees)  !
 --------------------------                            --------------------------
 ! Name  Definition              Value          Derivative Info.                !
 --------------------------------------------------------------------------------
 ! R1    R(1,9)                  1.4321         estimate D2E/DX2                !
 ! R2    R(1,11)                 1.4291         estimate D2E/DX2                !
 ! R3    R(2,7)                  1.4256         estimate D2E/DX2                !
 ! R4    R(2,21)                 0.9719         estimate D2E/DX2                !
 ! R5    R(3,8)                  1.4295         estimate D2E/DX2                !
 ! R6    R(3,22)                 0.9719         estimate D2E/DX2                !
 ! R7    R(4,10)                 1.4233         estimate D2E/DX2                !
 ! R8    R(4,23)                 0.9726         estimate D2E/DX2                !
 ! R9    R(5,11)                 1.4264         estimate D2E/DX2                !
 ! R10   R(5,13)                 1.4192         estimate D2E/DX2                !
 ! R11   R(6,12)                 1.4157         estimate D2E/DX2                !
 ! R12   R(6,24)                 0.9726         estimate D2E/DX2                !
 ! R13   R(7,8)                  1.53           estimate D2E/DX2                !
 ! R14   R(7,9)                  1.5348         estimate D2E/DX2                !
 ! R15   R(7,14)                 1.0977         estimate D2E/DX2                !
 ! R16   R(8,10)                 1.5274         estimate D2E/DX2                !
 ! R17   R(8,15)                 1.097          estimate D2E/DX2                !
 ! R18   R(9,12)                 1.5264         estimate D2E/DX2                !
 ! R19   R(9,16)                 1.0978         estimate D2E/DX2                !
 ! R20   R(10,11)                1.5295         estimate D2E/DX2                !
 ! R21   R(10,17)                1.0969         estimate D2E/DX2                !
 ! R22   R(11,18)                1.0973         estimate D2E/DX2                !
 ! R23   R(12,19)                1.095          estimate D2E/DX2                !
 ! R24   R(12,20)                1.0938         estimate D2E/DX2                !
 ! R25   R(13,25)                1.0938         estimate D2E/DX2                !
 ! R26   R(13,26)                1.0946         estimate D2E/DX2                !
 ! R27   R(13,27)                1.0935         estimate D2E/DX2                !
 ! A1    A(9,1,11)             113.3228         estimate D2E/DX2                !
 ! A2    A(7,2,21)             107.7493         estimate D2E/DX2                !
 ! A3    A(8,3,22)             107.6782         estimate D2E/DX2                !
 ! A4    A(10,4,23)            107.7425         estimate D2E/DX2                !
 ! A5    A(11,5,13)            111.3548         estimate D2E/DX2                !
 ! A6    A(12,6,24)            107.6278         estimate D2E/DX2                !
 ! A7    A(2,7,8)              108.0376         estimate D2E/DX2                !
 ! A8    A(2,7,9)              110.3233         estimate D2E/DX2                !
 ! A9    A(2,7,14)             107.6688         estimate D2E/DX2                !
 ! A10   A(8,7,9)              111.1873         estimate D2E/DX2                !
 ! A11   A(8,7,14)             109.591          estimate D2E/DX2                !
 ! A12   A(9,7,14)             109.9466         estimate D2E/DX2                !
 ! A13   A(3,8,7)              108.2707         estimate D2E/DX2                !
 ! A14   A(3,8,10)             109.0868         estimate D2E/DX2                !
 ! A15   A(3,8,15)             106.6624         estimate D2E/DX2                !
 ! A16   A(7,8,10)             110.5884         estimate D2E/DX2                !
 ! A17   A(7,8,15)             111.2934         estimate D2E/DX2                !
 ! A18   A(10,8,15)            110.8044         estimate D2E/DX2                !
 ! A19   A(1,9,7)              110.8716         estimate D2E/DX2                !
 ! A20   A(1,9,12)             106.9701         estimate D2E/DX2                !
 ! A21   A(1,9,16)             108.9225         estimate D2E/DX2                !
 ! A22   A(7,9,12)             112.0427         estimate D2E/DX2                !
 ! A23   A(7,9,16)             110.2627         estimate D2E/DX2                !
 ! A24   A(12,9,16)            107.6322         estimate D2E/DX2                !
 ! A25   A(4,10,8)             109.3464         estimate D2E/DX2                !
 ! A26   A(4,10,11)            110.294          estimate D2E/DX2                !
 ! A27   A(4,10,17)            107.2355         estimate D2E/DX2                !
 ! A28   A(8,10,11)            111.6823         estimate D2E/DX2                !
 ! A29   A(8,10,17)            108.6711         estimate D2E/DX2                !
 ! A30   A(11,10,17)           109.4944         estimate D2E/DX2                !
 ! A31   A(1,11,5)             112.2448         estimate D2E/DX2                !
 ! A32   A(1,11,10)            110.4587         estimate D2E/DX2                !
 ! A33   A(1,11,18)            107.1435         estimate D2E/DX2                !
 ! A34   A(5,11,10)            112.586          estimate D2E/DX2                !
 ! A35   A(5,11,18)            106.769          estimate D2E/DX2                !
 ! A36   A(10,11,18)           107.2928         estimate D2E/DX2                !
 ! A37   A(6,12,9)             108.5296         estimate D2E/DX2                !
 ! A38   A(6,12,19)            107.7917         estimate D2E/DX2                !
 ! A39   A(6,12,20)            108.5317         estimate D2E/DX2                !
 ! A40   A(9,12,19)            111.454          estimate D2E/DX2                !
 ! A41   A(9,12,20)            111.6205         estimate D2E/DX2                !
 ! A42   A(19,12,20)           108.7973         estimate D2E/DX2                !
 ! A43   A(5,13,25)            107.991          estimate D2E/DX2                !
 ! A44   A(5,13,26)            110.9552         estimate D2E/DX2                !
 ! A45   A(5,13,27)            111.5514         estimate D2E/DX2                !
 ! A46   A(25,13,26)           108.1768         estimate D2E/DX2                !
 ! A47   A(25,13,27)           107.8123         estimate D2E/DX2                !
 ! A48   A(26,13,27)           110.2154         estimate D2E/DX2                !
 ! D1    D(11,1,9,7)            60.2905         estimate D2E/DX2                !
 ! D2    D(11,1,9,12)         -177.2777         estimate D2E/DX2                !
 ! D3    D(11,1,9,16)          -61.212          estimate D2E/DX2                !
 ! D4    D(9,1,11,5)            66.207          estimate D2E/DX2                !
 ! D5    D(9,1,11,10)          -60.3394         estimate D2E/DX2                !
 ! D6    D(9,1,11,18)         -176.897          estimate D2E/DX2                !
 ! D7    D(21,2,7,8)            67.7502         estimate D2E/DX2                !
 ! D8    D(21,2,7,9)          -170.5181         estimate D2E/DX2                !
 ! D9    D(21,2,7,14)          -50.5326         estimate D2E/DX2                !
 ! D10   D(22,3,8,7)            67.8962         estimate D2E/DX2                !
 ! D11   D(22,3,8,10)         -171.6991         estimate D2E/DX2                !
 ! D12   D(22,3,8,15)          -51.9714         estimate D2E/DX2                !
 ! D13   D(23,4,10,8)           65.287          estimate D2E/DX2                !
 ! D14   D(23,4,10,11)         -57.8965         estimate D2E/DX2                !
 ! D15   D(23,4,10,17)        -177.0565         estimate D2E/DX2                !
 ! D16   D(13,5,11,1)           54.6055         estimate D2E/DX2                !
 ! D17   D(13,5,11,10)         179.9957         estimate D2E/DX2                !
 ! D18   D(13,5,11,18)         -62.5146         estimate D2E/DX2                !
 ! D19   D(11,5,13,25)         174.0239         estimate D2E/DX2                !
 ! D20   D(11,5,13,26)          55.6265         estimate D2E/DX2                !
 ! D21   D(11,5,13,27)         -67.678          estimate D2E/DX2                !
 ! D22   D(24,6,12,9)          -58.3554         estimate D2E/DX2                !
 ! D23   D(24,6,12,19)          62.4874         estimate D2E/DX2                !
 ! D24   D(24,6,12,20)        -179.8358         estimate D2E/DX2                !
 ! D25   D(2,7,8,3)            -69.5917         estimate D2E/DX2                !
 ! D26   D(2,7,8,10)           170.9443         estimate D2E/DX2                !
 ! D27   D(2,7,8,15)            47.3288         estimate D2E/DX2                !
 ! D28   D(9,7,8,3)            169.2117         estimate D2E/DX2                !
 ! D29   D(9,7,8,10)            49.7478         estimate D2E/DX2                !
 ! D30   D(9,7,8,15)           -73.8678         estimate D2E/DX2                !
 ! D31   D(14,7,8,3)            47.4549         estimate D2E/DX2                !
 ! D32   D(14,7,8,10)          -72.009          estimate D2E/DX2                !
 ! D33   D(14,7,8,15)          164.3754         estimate D2E/DX2                !
 ! D34   D(2,7,9,1)           -173.9738         estimate D2E/DX2                !
 ! D35   D(2,7,9,12)            66.5943         estimate D2E/DX2                !
 ! D36   D(2,7,9,16)           -53.2619         estimate D2E/DX2                !
 ! D37   D(8,7,9,1)            -54.1259         estimate D2E/DX2                !
 ! D38   D(8,7,9,12)          -173.5578         estimate D2E/DX2                !
 ! D39   D(8,7,9,16)            66.586          estimate D2E/DX2                !
 ! D40   D(14,7,9,1)            67.4235         estimate D2E/DX2                !
 ! D41   D(14,7,9,12)          -52.0083         estimate D2E/DX2                !
 ! D42   D(14,7,9,16)         -171.8646         estimate D2E/DX2                !
 ! D43   D(3,8,10,4)            68.4032         estimate D2E/DX2                !
 ! D44   D(3,8,10,11)         -169.2407         estimate D2E/DX2                !
 ! D45   D(3,8,10,17)          -48.3483         estimate D2E/DX2                !
 ! D46   D(7,8,10,4)          -172.6262         estimate D2E/DX2                !
 ! D47   D(7,8,10,11)          -50.2702         estimate D2E/DX2                !
 ! D48   D(7,8,10,17)           70.6223         estimate D2E/DX2                !
 ! D49   D(15,8,10,4)          -48.7291         estimate D2E/DX2                !
 ! D50   D(15,8,10,11)          73.627          estimate D2E/DX2                !
 ! D51   D(15,8,10,17)        -165.4806         estimate D2E/DX2                !
 ! D52   D(1,9,12,6)            57.8287         estimate D2E/DX2                !
 ! D53   D(1,9,12,19)          -60.7243         estimate D2E/DX2                !
 ! D54   D(1,9,12,20)          177.3941         estimate D2E/DX2                !
 ! D55   D(7,9,12,6)           179.5257         estimate D2E/DX2                !
 ! D56   D(7,9,12,19)           60.9727         estimate D2E/DX2                !
 ! D57   D(7,9,12,20)          -60.9089         estimate D2E/DX2                !
 ! D58   D(16,9,12,6)          -59.0921         estimate D2E/DX2                !
 ! D59   D(16,9,12,19)        -177.6451         estimate D2E/DX2                !
 ! D60   D(16,9,12,20)          60.4733         estimate D2E/DX2                !
 ! D61   D(4,10,11,1)          176.546          estimate D2E/DX2                !
 ! D62   D(4,10,11,5)           50.1902         estimate D2E/DX2                !
 ! D63   D(4,10,11,18)         -66.9891         estimate D2E/DX2                !
 ! D64   D(8,10,11,1)           54.7347         estimate D2E/DX2                !
 ! D65   D(8,10,11,5)          -71.6211         estimate D2E/DX2                !
 ! D66   D(8,10,11,18)         171.1996         estimate D2E/DX2                !
 ! D67   D(17,10,11,1)         -65.6771         estimate D2E/DX2                !
 ! D68   D(17,10,11,5)         167.9671         estimate D2E/DX2                !
 ! D69   D(17,10,11,18)         50.7878         estimate D2E/DX2                !
 --------------------------------------------------------------------------------
 Trust Radius=3.00D-01 FncErr=1.00D-07 GrdErr=1.00D-06 EigMax=2.50D+02 EigMin=1.00D-04
 Number of steps in this run=    154 maximum allowed number of steps=    162.
 GradGradGradGradGradGradGradGradGradGradGradGradGradGradGradGradGradGrad

                          Input orientation:                          
 ---------------------------------------------------------------------
 Center     Atomic      Atomic             Coordinates (Angstroms)
 Number     Number       Type             X           Y           Z
 ---------------------------------------------------------------------
      1          8           0       -0.856100   -0.618300   -0.811900
      2          8           0       -0.128900    2.524700    0.971500
      3          8           0        2.433700    1.768300   -0.083100
      4          8           0        2.742100   -1.104800   -0.243600
      5          8           0        0.274200   -1.997300    0.750500
      6          8           0       -3.430500    0.095700   -0.250500
      7          6           0        0.050400    1.503800   -0.007200
      8          6           0        1.402700    0.835100    0.248000
      9          6           0       -1.095200    0.485300    0.068900
     10          6           0        1.558500   -0.410700   -0.621800
     11          6           0        0.343800   -1.333400   -0.510100
     12          6           0       -2.433500    1.097100   -0.336600
     13          6           0       -0.861200   -2.845500    0.825900
     14          1           0        0.058300    1.985500   -0.993500
     15          1           0        1.531000    0.588000    1.309100
     16          1           0       -1.199700    0.106500    1.094000
     17          1           0        1.685100   -0.096900   -1.665200
     18          1           0        0.455800   -2.113900   -1.273200
     19          1           0       -2.411600    1.459500   -1.369700
     20          1           0       -2.714200    1.924600    0.321300
     21          1           0        0.523200    3.223100    0.794000
     22          1           0        2.398300    2.490100    0.566800
     23          1           0        2.618800   -1.427400    0.665600
     24          1           0       -3.166900   -0.633600   -0.837500
     25          1           0       -0.803500   -3.404600    1.764200
     26          1           0       -0.868600   -3.564000    0.000200
     27          1           0       -1.791700   -2.271200    0.835400
 ---------------------------------------------------------------------
                    Distance matrix (angstroms):
                    1          2          3          4          5
     1  O    0.000000
     2  O    3.686161   0.000000
     3  O    4.129140   2.872497   0.000000
     4  O    3.675145   4.784598   2.894058   0.000000
     5  O    2.370720   4.545307   4.420189   2.806300   0.000000
     6  O    2.729927   4.277135   6.100365   6.288262   4.371207
     7  C    2.443889   1.425566   2.399133   3.755786   3.589136
     8  C    2.887549   2.392488   1.429493   2.408085   3.090066
     9  C    1.432100   2.430550   3.757969   4.165447   2.916014
    10  C    2.430952   3.741991   2.409194   1.423278   2.459661
    11  C    1.429060   4.159750   3.764380   2.423865   1.426436
    12  C    2.378381   3.010041   4.919798   5.625286   4.253086
    13  C    2.764568   5.421855   5.741933   4.142178   1.419247
    14  H    2.765661   2.046217   2.553141   4.161140   4.353257
    15  H    3.413509   2.572946   2.036221   2.596770   2.928371
    16  H    2.067813   2.647510   4.165182   4.335229   2.591592
    17  H    2.730875   4.137097   2.557814   2.038151   3.381977
    18  H    2.042229   5.186247   4.516625   2.702874   2.035175
    19  H    2.654802   3.438981   5.022711   5.865523   4.863973
    20  H    3.347091   2.732518   5.166125   6.266385   4.949348
    21  H    4.386085   0.971856   2.556513   4.973012   5.226516
    22  H    4.706812   2.559633   0.971915   3.701115   4.968129
    23  H    3.861681   4.823124   3.287448   0.972583   2.414362
    24  H    2.310992   4.740969   6.140437   5.957435   4.027728
    25  H    3.795066   6.019972   6.375804   4.678848   2.041940
    26  H    3.055620   6.209899   6.272603   4.375415   2.079301
    27  H    2.514164   5.077803   5.917365   4.804172   2.085707
                    6          7          8          9         10
     6  O    0.000000
     7  C    3.762792   0.000000
     8  C    4.914777   1.530033   0.000000
     9  C    2.389023   1.534775   2.528624   0.000000
    10  C    5.028362   2.513446   1.527365   2.884789   0.000000
    11  C    4.044139   2.896325   2.529501   2.390320   1.529493
    12  C    1.415706   2.538438   3.889323   1.526361   4.276782
    13  C    4.050999   4.521226   4.359590   3.423746   3.725458
    14  H    4.036721   1.097673   2.161517   2.170220   2.851409
    15  H    5.224097   2.182547   1.097020   2.906126   2.174059
    16  H    2.604662   2.174359   2.831794   1.097834   3.289245
    17  H    5.311105   2.825500   2.146790   3.328082   1.096896
    18  H    4.586020   3.854200   3.450691   3.310993   2.131000
    19  H    2.037331   2.814216   4.189954   2.179804   4.451819
    20  H    2.045707   2.815670   4.259254   2.180929   4.959741
    21  H    5.148141   1.954854   2.602726   3.261984   4.034952
    22  H    6.354214   2.610536   1.957518   4.058530   3.245408
    23  H    6.305006   3.954905   2.602344   4.219984   1.953283
    24  H    0.972591   3.950810   4.921040   2.522982   4.735569
    25  H    4.817909   5.287664   5.014104   4.253287   4.498386
    26  H    4.474325   5.150458   4.957044   4.056217   4.027530
    27  H    3.076859   4.284149   4.494255   2.944644   4.099845
                   11         12         13         14         15
    11  C    0.000000
    12  C    3.694703   0.000000
    13  C    2.350185   4.400867   0.000000
    14  H    3.366049   2.725773   5.243497   0.000000
    15  H    2.900122   4.322589   4.212484   3.069824   0.000000
    16  H    2.651196   2.133112   2.983415   3.077476   2.781157
    17  H    2.159230   4.489285   4.499336   2.726545   3.056026
    18  H    1.097290   4.419932   2.583786   4.128113   3.889035
    19  H    4.016395   1.095038   5.075177   2.553157   4.845573
    20  H    4.545014   1.093792   5.142187   3.069066   4.558944
    21  H    4.742842   3.813162   6.224587   2.223273   2.867881
    22  H    4.472118   5.109097   6.257803   2.857404   2.218378
    23  H    2.562563   5.736135   3.761264   4.577844   2.378915
    24  H    3.594708   1.945276   3.602173   4.157636   5.307585
    25  H    3.283079   5.228342   1.093768   6.115618   4.647350
    26  H    2.589575   4.928306   1.094567   5.713452   4.970956
    27  H    2.692619   3.623663   1.093499   4.988674   4.409053
                   16         17         18         19         20
    16  H    0.000000
    17  H    3.997077   0.000000
    18  H    3.643418   2.394396   0.000000
    19  H    3.060903   4.392340   4.582628   0.000000
    20  H    2.489229   5.233210   5.375948   1.779709   0.000000
    21  H    3.573735   4.291862   5.723760   4.050300   3.519987
    22  H    4.347999   3.490422   5.325009   5.286521   5.149536
    23  H    4.137308   2.841594   2.984761   6.146671   6.308354
    24  H    2.854526   4.951266   3.937649   2.287965   2.844669
    25  H    3.596382   5.375388   3.532356   6.005563   5.842355
    26  H    3.844294   4.616895   2.340592   5.430748   5.799489
    27  H    2.463898   4.802991   3.085805   4.377769   4.326666
                   21         22         23         24         25
    21  H    0.000000
    22  H    2.026057   0.000000
    23  H    5.102468   3.924944   0.000000
    24  H    5.581466   6.534601   6.030237   0.000000
    25  H    6.828457   6.814160   4.102241   4.475818   0.000000
    26  H    6.973661   6.902594   4.143643   3.817220   1.772383
    27  H    5.962198   6.348088   4.493700   2.715051   1.767429
                   26         27
    26  H    0.000000
    27  H    1.794716   0.000000
 Stoichiometry    C7H14O6
 Framework group  C1[X(C7H14O6)]
 Deg. of freedom    75
 Full point group                 C1      NOp   1
 Largest Abelian subgroup         C1      NOp   1
 Largest concise Abelian subgroup C1      NOp   1
                         Standard orientation:                         
 ---------------------------------------------------------------------
 Center     Atomic      Atomic             Coordinates (Angstroms)
 Number     Number       Type             X           Y           Z
 ---------------------------------------------------------------------
      1          8           0        0.926354    0.493653   -0.819212
      2          8           0       -0.233836   -2.515444    0.966028
      3          8           0       -2.658802   -1.436229   -0.132185
      4          8           0       -2.585057    1.451424   -0.309940
      5          8           0       -0.036673    2.018870    0.719166
      6          8           0        3.376027   -0.548210   -0.214128
      7          6           0       -0.262823   -1.486085   -0.019781
      8          6           0       -1.519377   -0.644211    0.211132
      9          6           0        1.005242   -0.626154    0.070013
     10          6           0       -1.497201    0.605711   -0.666392
     11          6           0       -0.173751    1.361836   -0.539498
     12          6           0        2.257655   -1.410740   -0.311646
     13          6           0        1.198945    2.711308    0.808834
     14          1           0       -0.318974   -1.968845   -1.003994
     15          1           0       -1.630147   -0.375683    1.268995
     16          1           0        1.143058   -0.257825    1.094991
     17          1           0       -1.648118    0.304602   -1.710297
     18          1           0       -0.170828    2.145420   -1.307635
     19          1           0        2.203988   -1.773694   -1.343389
     20          1           0        2.417375   -2.263709    0.354173
     21          1           0       -0.969189   -3.123409    0.781264
     22          1           0       -2.728242   -2.152294    0.521303
     23          1           0       -2.434231    1.760837    0.599693
     24          1           0        3.219300    0.205617   -0.808363
     25          1           0        1.200952    3.279096    1.743683
     26          1           0        1.313030    3.417373   -0.019740
     27          1           0        2.045786    2.020013    0.835514
 ---------------------------------------------------------------------
 Rotational constants (GHZ):           0.9208598           0.7381888           0.4630485
 Standard basis: 6-311++G(d,p) (5D, 7F)
 There are   397 symmetry adapted cartesian basis functions of A   symmetry.
 There are   384 symmetry adapted basis functions of A   symmetry.
   384 basis functions,   594 primitive gaussians,   397 cartesian basis functions
    52 alpha electrons       52 beta electrons
       nuclear repulsion energy       949.5849439732 Hartrees.
 NAtoms=   27 NActive=   27 NUniq=   27 SFac= 1.00D+00 NAtFMM=   60 NAOKFM=F Big=F
 Integral buffers will be    131072 words long.
 Raffenetti 2 integral format.
 Two-electron integral symmetry is turned on.
 R6APFD:  NTU= -4 IXU= 1 FactS= 1.050
 Nuclear repulsion after empirical dispersion term =      949.5575228361 Hartrees.
 One-electron integrals computed using PRISM.
 NBasis=   384 RedAO= T EigKep=  3.66D-06  NBF=   384
 NBsUse=   384 1.00D-06 EigRej= -1.00D+00 NBFU=   384
 ExpMin= 3.60D-02 ExpMax= 8.59D+03 ExpMxC= 1.30D+03 IAcc=3 IRadAn=         5 AccDes= 0.00D+00
 Harris functional with IExCor= 1009 and IRadAn=       5 diagonalized for initial guess.
 HarFok:  IExCor= 1009 AccDes= 0.00D+00 IRadAn=         5 IDoV= 1 UseB2=F ITyADJ=14
 ICtDFT=  3500011 ScaDFX=  1.000000  1.000000  1.000000  1.000000
 FoFCou: FMM=F IPFlag=           0 FMFlag=      100000 FMFlg1=           0
         NFxFlg=           0 DoJE=T BraDBF=F KetDBF=T FulRan=T
         wScrn=  0.000000 ICntrl=       500 IOpCl=  0 I1Cent=   200000004 NGrid=           0
         NMat0=    1 NMatS0=      1 NMatT0=    0 NMatD0=    1 NMtDS0=    0 NMtDT0=    0
 Petite list used in FoFCou.
 Requested convergence on RMS density matrix=1.00D-08 within  32 cycles.
 Requested convergence on MAX density matrix=1.00D-06.
 Requested convergence on             energy=1.00D-06.
 No special actions if energy rises.
 SCF Done:  E(RM08HX) =  -726.476831643     A.U. after   14 cycles
            NFock= 14  Conv=0.18D-08     -V/T= 2.0041
 QCSCF skips out because SCF is already converged.

 **********************************************************************

            Population analysis using the SCF Density.

 **********************************************************************

 Orbital symmetries:
       Occupied  (A) (A) (A) (A) (A) (A) (A) (A) (A) (A) (A) (A)
                 (A) (A) (A) (A) (A) (A) (A) (A) (A) (A) (A) (A)
                 (A) (A) (A) (A) (A) (A) (A) (A) (A) (A) (A) (A)
                 (A) (A) (A) (A) (A) (A) (A) (A) (A) (A) (A) (A)
                 (A) (A) (A) (A)
       Virtual   (A) (A) (A) (A) (A) (A) (A) (A) (A) (A) (A) (A)
                 (A) (A) (A) (A) (A) (A) (A) (A) (A) (A) (A) (A)
                 (A) (A) (A) (A) (A) (A) (A) (A) (A) (A) (A) (A)
                 (A) (A) (A) (A) (A) (A) (A) (A) (A) (A) (A) (A)
                 (A) (A) (A) (A) (A) (A) (A) (A) (A) (A) (A) (A)
                 (A) (A) (A) (A) (A) (A) (A) (A) (A) (A) (A) (A)
                 (A) (A) (A) (A) (A) (A) (A) (A) (A) (A) (A) (A)
                 (A) (A) (A) (A) (A) (A) (A) (A) (A) (A) (A) (A)
                 (A) (A) (A) (A) (A) (A) (A) (A) (A) (A) (A) (A)
                 (A) (A) (A) (A) (A) (A) (A) (A) (A) (A) (A) (A)
                 (A) (A) (A) (A) (A) (A) (A) (A) (A) (A) (A) (A)
                 (A) (A) (A) (A) (A) (A) (A) (A) (A) (A) (A) (A)
                 (A) (A) (A) (A) (A) (A) (A) (A) (A) (A) (A) (A)
                 (A) (A) (A) (A) (A) (A) (A) (A) (A) (A) (A) (A)
                 (A) (A) (A) (A) (A) (A) (A) (A) (A) (A) (A) (A)
                 (A) (A) (A) (A) (A) (A) (A) (A) (A) (A) (A) (A)
                 (A) (A) (A) (A) (A) (A) (A) (A) (A) (A) (A) (A)
                 (A) (A) (A) (A) (A) (A) (A) (A) (A) (A) (A) (A)
                 (A) (A) (A) (A) (A) (A) (A) (A) (A) (A) (A) (A)
                 (A) (A) (A) (A) (A) (A) (A) (A) (A) (A) (A) (A)
                 (A) (A) (A) (A) (A) (A) (A) (A) (A) (A) (A) (A)
                 (A) (A) (A) (A) (A) (A) (A) (A) (A) (A) (A) (A)
                 (A) (A) (A) (A) (A) (A) (A) (A) (A) (A) (A) (A)
                 (A) (A) (A) (A) (A) (A) (A) (A) (A) (A) (A) (A)
                 (A) (A) (A) (A) (A) (A) (A) (A) (A) (A) (A) (A)
                 (A) (A) (A) (A) (A) (A) (A) (A) (A) (A) (A) (A)
                 (A) (A) (A) (A) (A) (A) (A) (A) (A) (A) (A) (A)
                 (A) (A) (A) (A) (A) (A) (A) (A)
 The electronic state is 1-A.
 Alpha  occ. eigenvalues --  -19.64838 -19.64301 -19.63747 -19.62989 -19.61736
 Alpha  occ. eigenvalues --  -19.60987 -10.65444 -10.60377 -10.60368 -10.60199
 Alpha  occ. eigenvalues --  -10.59948 -10.58344 -10.58291  -1.22148  -1.18271
 Alpha  occ. eigenvalues --   -1.16381  -1.15414  -1.14262  -1.13774  -0.90612
 Alpha  occ. eigenvalues --   -0.89587  -0.81945  -0.78301  -0.74812  -0.72394
 Alpha  occ. eigenvalues --   -0.68005  -0.64264  -0.63278  -0.61525  -0.60475
 Alpha  occ. eigenvalues --   -0.59502  -0.58207  -0.55932  -0.54883  -0.54328
 Alpha  occ. eigenvalues --   -0.51806  -0.50738  -0.50156  -0.49609  -0.48032
 Alpha  occ. eigenvalues --   -0.46354  -0.45990  -0.44813  -0.42353  -0.41585
 Alpha  occ. eigenvalues --   -0.41065  -0.39729  -0.38794  -0.37346  -0.36262
 Alpha  occ. eigenvalues --   -0.35315  -0.34498
 Alpha virt. eigenvalues --   -0.04155  -0.02950  -0.02412  -0.01174  -0.00641
 Alpha virt. eigenvalues --   -0.00247   0.00558   0.00834   0.01864   0.02482
 Alpha virt. eigenvalues --    0.02922   0.03482   0.04393   0.04802   0.05482
 Alpha virt. eigenvalues --    0.05999   0.07092   0.07423   0.08075   0.08960
 Alpha virt. eigenvalues --    0.09260   0.09539   0.09804   0.10115   0.10187
 Alpha virt. eigenvalues --    0.10840   0.11383   0.11633   0.12261   0.12593
 Alpha virt. eigenvalues --    0.12804   0.13139   0.13848   0.13920   0.14335
 Alpha virt. eigenvalues --    0.14440   0.14993   0.15324   0.16282   0.16782
 Alpha virt. eigenvalues --    0.17598   0.18176   0.18483   0.19117   0.19709
 Alpha virt. eigenvalues --    0.20703   0.21235   0.21806   0.22054   0.22165
 Alpha virt. eigenvalues --    0.22486   0.23415   0.24198   0.24862   0.25216
 Alpha virt. eigenvalues --    0.25459   0.26252   0.26879   0.27027   0.27458
 Alpha virt. eigenvalues --    0.28205   0.28751   0.29516   0.29975   0.30678
 Alpha virt. eigenvalues --    0.30941   0.31423   0.31960   0.32416   0.32854
 Alpha virt. eigenvalues --    0.33146   0.33471   0.33921   0.34116   0.34526
 Alpha virt. eigenvalues --    0.35117   0.35700   0.36015   0.36532   0.36919
 Alpha virt. eigenvalues --    0.37514   0.37816   0.38273   0.39459   0.40310
 Alpha virt. eigenvalues --    0.41107   0.41480   0.41894   0.42715   0.43269
 Alpha virt. eigenvalues --    0.44530   0.45614   0.45782   0.49653   0.52362
 Alpha virt. eigenvalues --    0.53631   0.55018   0.56218   0.57603   0.57920
 Alpha virt. eigenvalues --    0.59213   0.59866   0.60742   0.62032   0.62999
 Alpha virt. eigenvalues --    0.63990   0.65834   0.66005   0.66995   0.68768
 Alpha virt. eigenvalues --    0.69066   0.69908   0.72029   0.72546   0.72887
 Alpha virt. eigenvalues --    0.73837   0.74590   0.75550   0.76520   0.76964
 Alpha virt. eigenvalues --    0.77778   0.78355   0.78967   0.80658   0.81450
 Alpha virt. eigenvalues --    0.82522   0.85209   0.93504   0.94870   0.98614
 Alpha virt. eigenvalues --    1.00437   1.01932   1.03158   1.06720   1.08757
 Alpha virt. eigenvalues --    1.10003   1.11497   1.12022   1.12753   1.14969
 Alpha virt. eigenvalues --    1.16146   1.16368   1.18710   1.19227   1.22500
 Alpha virt. eigenvalues --    1.23086   1.23708   1.24889   1.25654   1.26865
 Alpha virt. eigenvalues --    1.27190   1.28257   1.31341   1.32181   1.33152
 Alpha virt. eigenvalues --    1.34625   1.35275   1.37786   1.38514   1.41111
 Alpha virt. eigenvalues --    1.41398   1.42925   1.45790   1.46888   1.49222
 Alpha virt. eigenvalues --    1.49242   1.51716   1.52233   1.54231   1.55417
 Alpha virt. eigenvalues --    1.57164   1.57362   1.58732   1.59605   1.60046
 Alpha virt. eigenvalues --    1.61310   1.62785   1.63970   1.64464   1.65630
 Alpha virt. eigenvalues --    1.67406   1.67962   1.68391   1.70116   1.71735
 Alpha virt. eigenvalues --    1.73615   1.73913   1.74441   1.75127   1.76826
 Alpha virt. eigenvalues --    1.78476   1.79786   1.81058   1.81783   1.82641
 Alpha virt. eigenvalues --    1.84312   1.84821   1.86296   1.89708   1.92398
 Alpha virt. eigenvalues --    1.93849   1.96884   1.98264   1.98675   2.01464
 Alpha virt. eigenvalues --    2.04155   2.07022   2.08180   2.10340   2.11998
 Alpha virt. eigenvalues --    2.12549   2.13260   2.14769   2.15056   2.17089
 Alpha virt. eigenvalues --    2.19074   2.20333   2.21411   2.24623   2.26144
 Alpha virt. eigenvalues --    2.27469   2.28693   2.32742   2.35208   2.36125
 Alpha virt. eigenvalues --    2.40529   2.46331   2.51174   2.52462   2.53554
 Alpha virt. eigenvalues --    2.56527   2.57095   2.57361   2.58351   2.59625
 Alpha virt. eigenvalues --    2.61355   2.63368   2.65500   2.66558   2.68032
 Alpha virt. eigenvalues --    2.70881   2.72598   2.75816   2.79873   2.81988
 Alpha virt. eigenvalues --    2.83129   2.85865   2.87038   2.92294   2.93404
 Alpha virt. eigenvalues --    2.95113   2.97825   2.98347   3.00784   3.03727
 Alpha virt. eigenvalues --    3.06223   3.07779   3.08327   3.10088   3.12471
 Alpha virt. eigenvalues --    3.16847   3.18353   3.18540   3.20938   3.21697
 Alpha virt. eigenvalues --    3.21900   3.23945   3.25497   3.26954   3.27450
 Alpha virt. eigenvalues --    3.30136   3.33213   3.35028   3.36183   3.38031
 Alpha virt. eigenvalues --    3.39175   3.43344   3.43916   3.45687   3.55642
 Alpha virt. eigenvalues --    3.60376   3.80602   3.81347   3.83713   3.88148
 Alpha virt. eigenvalues --    3.91542   3.92754   3.95123   3.96697   3.99623
 Alpha virt. eigenvalues --    4.01485   4.04535   4.08721   4.09965   4.15094
 Alpha virt. eigenvalues --    4.20577   4.24165   4.26035   4.29798   4.37184
 Alpha virt. eigenvalues --    4.40770   5.21598   5.23732   5.25300   5.25860
 Alpha virt. eigenvalues --    5.26872   5.29335   5.45189   5.51051   5.51990
 Alpha virt. eigenvalues --    5.53105   5.53957   5.57114   5.69564   5.72258
 Alpha virt. eigenvalues --    5.73724   5.75324   5.76208   5.85579  23.79713
 Alpha virt. eigenvalues --   23.82644  23.87196  23.87840  23.90493  23.93506
 Alpha virt. eigenvalues --   23.98749  49.92668  49.93757  49.94964  49.95494
 Alpha virt. eigenvalues --   49.97990  50.01482
          Condensed to atoms (all electrons):
               1          2          3          4          5          6
     1  O    8.130571   0.005976  -0.009484   0.011327  -0.075500  -0.011550
     2  O    0.005976   7.941535  -0.018566   0.000555   0.000428  -0.001888
     3  O   -0.009484  -0.018566   7.885825   0.014976  -0.004809   0.000226
     4  O    0.011327   0.000555   0.014976   7.803828  -0.004377   0.000050
     5  O   -0.075500   0.000428  -0.004809  -0.004377   8.030681  -0.005060
     6  O   -0.011550  -0.001888   0.000226   0.000050  -0.005060   7.934510
     7  C   -0.089690   0.464431  -0.269526   0.060127  -0.155991   0.048885
     8  C    0.114618  -0.319816   0.529124  -0.399052   0.077032  -0.023776
     9  C   -0.002310  -0.204848   0.109396   0.049471   0.111279  -0.072536
    10  C   -0.064975   0.053106  -0.336126   0.448262   0.046952  -0.008693
    11  C    0.155343   0.047397   0.099857   0.018892  -0.058652   0.016582
    12  C   -0.089469   0.021457  -0.011558  -0.000031   0.026815   0.175861
    13  C   -0.028226   0.002009  -0.002777  -0.012651   0.207937   0.001225
    14  H    0.015984  -0.026296  -0.026576  -0.001484  -0.003353  -0.004812
    15  H    0.008804  -0.029117  -0.022034  -0.038771   0.013016  -0.001836
    16  H   -0.047909  -0.021615  -0.000961   0.002295  -0.006409   0.004869
    17  H    0.013051  -0.008385  -0.021526  -0.095004   0.013362   0.000190
    18  H   -0.086151   0.003334   0.001630   0.006501  -0.058193   0.002452
    19  H   -0.040267  -0.010826   0.001801   0.000002  -0.002447  -0.035502
    20  H    0.027869   0.032806  -0.000745  -0.000139   0.002507  -0.097138
    21  H   -0.000963   0.215928  -0.003730   0.000583  -0.000540   0.000409
    22  H   -0.000006  -0.001539   0.216822   0.000434  -0.000001   0.000100
    23  H    0.002695  -0.000010   0.004950   0.222713   0.015244  -0.000053
    24  H    0.035642   0.000757   0.000128   0.000321  -0.000445   0.232669
    25  H    0.000967   0.000048   0.000059  -0.000558  -0.072721   0.001321
    26  H   -0.020474  -0.000021  -0.000101   0.001858  -0.044486  -0.000394
    27  H    0.024516  -0.000771  -0.000076  -0.000552  -0.036691   0.017867
               7          8          9         10         11         12
     1  O   -0.089690   0.114618  -0.002310  -0.064975   0.155343  -0.089469
     2  O    0.464431  -0.319816  -0.204848   0.053106   0.047397   0.021457
     3  O   -0.269526   0.529124   0.109396  -0.336126   0.099857  -0.011558
     4  O    0.060127  -0.399052   0.049471   0.448262   0.018892  -0.000031
     5  O   -0.155991   0.077032   0.111279   0.046952  -0.058652   0.026815
     6  O    0.048885  -0.023776  -0.072536  -0.008693   0.016582   0.175861
     7  C   13.176696  -3.409186  -4.599773  -1.223001   2.614098  -0.044116
     8  C   -3.409186  14.060377   1.047657  -5.054413  -0.501100  -0.569402
     9  C   -4.599773   1.047657  13.018818   0.902383  -2.387952  -2.049987
    10  C   -1.223001  -5.054413   0.902383  16.318640  -5.385028   0.590032
    11  C    2.614098  -0.501100  -2.387952  -5.385028  12.920096  -0.438696
    12  C   -0.044116  -0.569402  -2.049987   0.590032  -0.438696   8.479922
    13  C   -0.101765  -0.016355   0.070087   0.242407  -0.672047   0.052139
    14  H    0.488237   0.200058  -0.279153  -0.187498   0.108250  -0.108432
    15  H   -0.385788   0.862225   0.041067  -0.079559  -0.236572  -0.005264
    16  H   -0.215749   0.083436   0.585771  -0.083017   0.032437  -0.038491
    17  H   -0.121433   0.031325   0.049707   0.675142  -0.393355  -0.012289
    18  H    0.095040  -0.175075  -0.165842  -0.116155   0.625930   0.045585
    19  H   -0.099455   0.122505   0.335143  -0.092083  -0.035741   0.101282
    20  H    0.057152  -0.098701  -0.306744   0.067529   0.003441   0.603700
    21  H    0.011257  -0.049377  -0.002219   0.004002   0.025358   0.033662
    22  H    0.050832  -0.102635   0.009141   0.087793  -0.007944  -0.006288
    23  H   -0.029462   0.059344   0.021126   0.026091  -0.105428   0.003229
    24  H    0.031856  -0.034107  -0.077487   0.001666   0.035007   0.015002
    25  H    0.015288  -0.013546  -0.014461  -0.006396   0.054191   0.008126
    26  H   -0.008572   0.018805   0.037200  -0.003380  -0.034148  -0.005030
    27  H   -0.007371   0.028269   0.044823  -0.048326   0.003020  -0.081757
              13         14         15         16         17         18
     1  O   -0.028226   0.015984   0.008804  -0.047909   0.013051  -0.086151
     2  O    0.002009  -0.026296  -0.029117  -0.021615  -0.008385   0.003334
     3  O   -0.002777  -0.026576  -0.022034  -0.000961  -0.021526   0.001630
     4  O   -0.012651  -0.001484  -0.038771   0.002295  -0.095004   0.006501
     5  O    0.207937  -0.003353   0.013016  -0.006409   0.013362  -0.058193
     6  O    0.001225  -0.004812  -0.001836   0.004869   0.000190   0.002452
     7  C   -0.101765   0.488237  -0.385788  -0.215749  -0.121433   0.095040
     8  C   -0.016355   0.200058   0.862225   0.083436   0.031325  -0.175075
     9  C    0.070087  -0.279153   0.041067   0.585771   0.049707  -0.165842
    10  C    0.242407  -0.187498  -0.079559  -0.083017   0.675142  -0.116155
    11  C   -0.672047   0.108250  -0.236572   0.032437  -0.393355   0.625930
    12  C    0.052139  -0.108432  -0.005264  -0.038491  -0.012289   0.045585
    13  C    5.479525  -0.004701   0.001178  -0.012546   0.010211   0.002290
    14  H   -0.004701   0.568773   0.013437  -0.014455  -0.016628   0.002997
    15  H    0.001178   0.013437   0.583254  -0.017353   0.012819  -0.007746
    16  H   -0.012546  -0.014455  -0.017353   0.400360   0.000470  -0.003662
    17  H    0.010211  -0.016628   0.012819   0.000470   0.489910  -0.041900
    18  H    0.002290   0.002997  -0.007746  -0.003662  -0.041900   0.554274
    19  H   -0.004746  -0.010100   0.005597   0.016424   0.001871  -0.007375
    20  H    0.004855   0.001005  -0.004104  -0.029529  -0.000071   0.002883
    21  H   -0.000620  -0.036851  -0.012859   0.012315   0.000699   0.000854
    22  H    0.000438  -0.010548  -0.037127   0.001159   0.006155  -0.000745
    23  H   -0.004281  -0.002472  -0.005796   0.002969   0.024777  -0.011839
    24  H   -0.000980  -0.000450  -0.002029  -0.010195  -0.000655   0.001896
    25  H    0.381082  -0.000741  -0.002422   0.000247  -0.000643   0.006729
    26  H    0.400092   0.000272   0.004647   0.000760   0.000725   0.006520
    27  H    0.383805   0.002974  -0.002328  -0.002319   0.000038  -0.010619
              19         20         21         22         23         24
     1  O   -0.040267   0.027869  -0.000963  -0.000006   0.002695   0.035642
     2  O   -0.010826   0.032806   0.215928  -0.001539  -0.000010   0.000757
     3  O    0.001801  -0.000745  -0.003730   0.216822   0.004950   0.000128
     4  O    0.000002  -0.000139   0.000583   0.000434   0.222713   0.000321
     5  O   -0.002447   0.002507  -0.000540  -0.000001   0.015244  -0.000445
     6  O   -0.035502  -0.097138   0.000409   0.000100  -0.000053   0.232669
     7  C   -0.099455   0.057152   0.011257   0.050832  -0.029462   0.031856
     8  C    0.122505  -0.098701  -0.049377  -0.102635   0.059344  -0.034107
     9  C    0.335143  -0.306744  -0.002219   0.009141   0.021126  -0.077487
    10  C   -0.092083   0.067529   0.004002   0.087793   0.026091   0.001666
    11  C   -0.035741   0.003441   0.025358  -0.007944  -0.105428   0.035007
    12  C    0.101282   0.603700   0.033662  -0.006288   0.003229   0.015002
    13  C   -0.004746   0.004855  -0.000620   0.000438  -0.004281  -0.000980
    14  H   -0.010100   0.001005  -0.036851  -0.010548  -0.002472  -0.000450
    15  H    0.005597  -0.004104  -0.012859  -0.037127  -0.005796  -0.002029
    16  H    0.016424  -0.029529   0.012315   0.001159   0.002969  -0.010195
    17  H    0.001871  -0.000071   0.000699   0.006155   0.024777  -0.000655
    18  H   -0.007375   0.002883   0.000854  -0.000745  -0.011839   0.001896
    19  H    0.665010  -0.128506   0.000202  -0.000317   0.000477  -0.041773
    20  H   -0.128506   0.559312  -0.003773   0.000638  -0.000242   0.035219
    21  H    0.000202  -0.003773   0.523596   0.012462   0.000352   0.000493
    22  H   -0.000317   0.000638   0.012462   0.521545  -0.001669  -0.000015
    23  H    0.000477  -0.000242   0.000352  -0.001669   0.480725   0.000011
    24  H   -0.041773   0.035219   0.000493  -0.000015   0.000011   0.503353
    25  H    0.000209   0.000037   0.000102  -0.000028   0.000578   0.001264
    26  H    0.001300  -0.000859  -0.000059  -0.000005  -0.001284  -0.002687
    27  H    0.006560  -0.005154  -0.000587   0.000318  -0.000101  -0.002916
              25         26         27
     1  O    0.000967  -0.020474   0.024516
     2  O    0.000048  -0.000021  -0.000771
     3  O    0.000059  -0.000101  -0.000076
     4  O   -0.000558   0.001858  -0.000552
     5  O   -0.072721  -0.044486  -0.036691
     6  O    0.001321  -0.000394   0.017867
     7  C    0.015288  -0.008572  -0.007371
     8  C   -0.013546   0.018805   0.028269
     9  C   -0.014461   0.037200   0.044823
    10  C   -0.006396  -0.003380  -0.048326
    11  C    0.054191  -0.034148   0.003020
    12  C    0.008126  -0.005030  -0.081757
    13  C    0.381082   0.400092   0.383805
    14  H   -0.000741   0.000272   0.002974
    15  H   -0.002422   0.004647  -0.002328
    16  H    0.000247   0.000760  -0.002319
    17  H   -0.000643   0.000725   0.000038
    18  H    0.006729   0.006520  -0.010619
    19  H    0.000209   0.001300   0.006560
    20  H    0.000037  -0.000859  -0.005154
    21  H    0.000102  -0.000059  -0.000587
    22  H   -0.000028  -0.000005   0.000318
    23  H    0.000578  -0.001284  -0.000101
    24  H    0.001264  -0.002687  -0.002916
    25  H    0.478281  -0.024435  -0.038793
    26  H   -0.024435   0.556915  -0.068837
    27  H   -0.038793  -0.068837   0.601325
 Mulliken charges:
               1
     1  O    0.019614
     2  O   -0.146068
     3  O   -0.136200
     4  O   -0.089578
     5  O   -0.015580
     6  O   -0.173977
     7  C   -0.353020
     8  C   -0.468236
     9  C   -0.269756
    10  C   -0.775358
    11  C   -0.503237
    12  C   -0.696002
    13  C   -0.377585
    14  H    0.332564
    15  H    0.344661
    16  H    0.360700
    17  H    0.381435
    18  H    0.326387
    19  H    0.250757
    20  H    0.276752
    21  H    0.269307
    22  H    0.261032
    23  H    0.297356
    24  H    0.278457
    25  H    0.226215
    26  H    0.185679
    27  H    0.193683
 Sum of Mulliken charges =  -0.00000
 Mulliken charges with hydrogens summed into heavy atoms:
               1
     1  O    0.019614
     2  O    0.123238
     3  O    0.124831
     4  O    0.207778
     5  O   -0.015580
     6  O    0.104480
     7  C   -0.020457
     8  C   -0.123575
     9  C    0.090944
    10  C   -0.393923
    11  C   -0.176850
    12  C   -0.168493
    13  C    0.227992
 Electronic spatial extent (au):  <R**2>=           2480.5869
 Charge=              0.0000 electrons
 Dipole moment (field-independent basis, Debye):
    X=              0.0083    Y=             -0.3685    Z=              0.3462  Tot=              0.5057
 Quadrupole moment (field-independent basis, Debye-Ang):
   XX=            -95.5992   YY=            -68.6315   ZZ=            -78.0691
   XY=             10.7907   XZ=             -7.4738   YZ=              1.3119
 Traceless Quadrupole moment (field-independent basis, Debye-Ang):
   XX=            -14.8326   YY=             12.1351   ZZ=              2.6975
   XY=             10.7907   XZ=             -7.4738   YZ=              1.3119
 Octapole moment (field-independent basis, Debye-Ang**2):
  XXX=            -10.4290  YYY=            -14.1211  ZZZ=             -2.0843  XYY=             -4.8919
  XXY=             -1.7854  XXZ=             16.4033  XZZ=             -3.6020  YZZ=              6.1585
  YYZ=              6.6894  XYZ=              5.9340
 Hexadecapole moment (field-independent basis, Debye-Ang**3):
 XXXX=          -1856.9631 YYYY=          -1149.0394 ZZZZ=           -269.1395 XXXY=             87.7955
 XXXZ=            -89.3026 YYYX=             98.7784 YYYZ=              0.6812 ZZZX=             -3.9593
 ZZZY=              6.3844 XXYY=           -424.1845 XXZZ=           -280.9011 YYZZ=           -252.2113
 XXYZ=            -11.0954 YYXZ=            -31.8158 ZZXY=              4.6982
 N-N= 9.495575228361D+02 E-N=-3.602856791120D+03  KE= 7.234840623940D+02
 R6APFD:  NTU= -4 IXU= 1 FactS= 1.050
 Calling FoFJK, ICntrl=      2127 FMM=F ISym2X=0 I1Cent= 0 IOpClX= 0 NMat=1 NMatS=1 NMatT=0.
 ***** Axes restored to original set *****
 -------------------------------------------------------------------
 Center     Atomic                   Forces (Hartrees/Bohr)
 Number     Number              X              Y              Z
 -------------------------------------------------------------------
      1        8           0.011287899   -0.000463113    0.001890606
      2        8           0.000882123    0.006583485   -0.001185995
      3        8          -0.001407267    0.006125213    0.005563278
      4        8          -0.005412861   -0.003733765    0.001745833
      5        8           0.003185571    0.019574843   -0.010480909
      6        8          -0.002092590   -0.008000014   -0.002376808
      7        6           0.003367347   -0.002039012    0.010707963
      8        6          -0.000578415    0.010725291   -0.013161575
      9        6          -0.000557076    0.011267968    0.002106321
     10        6           0.018939692   -0.002679076    0.024636825
     11        6          -0.014908210   -0.006291453   -0.000312796
     12        6          -0.002215282   -0.016511987   -0.003593144
     13        6           0.003348353   -0.000603813    0.006432363
     14        1           0.001417087   -0.004690267   -0.006715841
     15        1          -0.008857305   -0.006164425    0.003835694
     16        1           0.002217811   -0.000898870    0.004176898
     17        1          -0.001237845   -0.001927056   -0.000561044
     18        1          -0.005901413   -0.000059927   -0.004551129
     19        1           0.006993609    0.005308693   -0.003681169
     20        1           0.001670023   -0.001298852    0.002066911
     21        1          -0.012666638   -0.007837449    0.001430051
     22        1           0.004801171   -0.012062469   -0.007696545
     23        1          -0.000299039    0.002731409   -0.010932527
     24        1          -0.001795396    0.009742410    0.007499181
     25        1           0.003157803    0.001299085    0.000291041
     26        1          -0.000628857   -0.000813914   -0.004443590
     27        1          -0.002710295    0.002717064   -0.002689891
 -------------------------------------------------------------------
 Cartesian Forces:  Max     0.024636825 RMS     0.007175878

 GradGradGradGradGradGradGradGradGradGradGradGradGradGradGradGradGradGrad
 Berny optimization.
 FormGI is forming the generalized inverse of G from B-inverse, IUseBI=4.
 Internal  Forces:  Max     0.020260527 RMS     0.005317043
 Search for a local minimum.
 Step number   1 out of a maximum of  154
 All quantities printed in internal units (Hartrees-Bohrs-Radians)
 Mixed Optimization -- RFO/linear search
 Second derivative matrix not updated -- first step.
 ITU=  0
     Eigenvalues ---    0.00417   0.00589   0.00630   0.01302   0.01342
     Eigenvalues ---    0.01350   0.01354   0.01384   0.01437   0.01484
     Eigenvalues ---    0.02873   0.03289   0.04411   0.04545   0.04644
     Eigenvalues ---    0.04858   0.05094   0.05284   0.05541   0.05615
     Eigenvalues ---    0.05625   0.06575   0.06882   0.07206   0.07356
     Eigenvalues ---    0.07848   0.09122   0.10018   0.10499   0.10821
     Eigenvalues ---    0.11458   0.11461   0.13696   0.14629   0.16000
     Eigenvalues ---    0.16000   0.16000   0.16000   0.16000   0.16000
     Eigenvalues ---    0.16000   0.16456   0.17483   0.18849   0.19654
     Eigenvalues ---    0.19684   0.21996   0.25000   0.27284   0.28613
     Eigenvalues ---    0.28866   0.29261   0.29762   0.33923   0.33941
     Eigenvalues ---    0.33984   0.34014   0.34028   0.34237   0.34290
     Eigenvalues ---    0.34378   0.34381   0.34411   0.39110   0.39653
     Eigenvalues ---    0.41062   0.41506   0.41633   0.41971   0.42574
     Eigenvalues ---    0.43114   0.52851   0.52853   0.52988   0.53000
 RFO step:  Lambda=-2.10398074D-02 EMin= 4.17248630D-03
 Linear search not attempted -- first point.
 Iteration  1 RMS(Cart)=  0.10057571 RMS(Int)=  0.00273615
 Iteration  2 RMS(Cart)=  0.00424825 RMS(Int)=  0.00064431
 Iteration  3 RMS(Cart)=  0.00000747 RMS(Int)=  0.00064429
 Iteration  4 RMS(Cart)=  0.00000000 RMS(Int)=  0.00064429
 Variable       Old X    -DE/DX   Delta X   Delta X   Delta X     New X
                                 (Linear)    (Quad)   (Total)
    R1        2.70628  -0.00581   0.00000  -0.01768  -0.01776   2.68851
    R2        2.70053  -0.01768   0.00000  -0.04125  -0.04073   2.65980
    R3        2.69393   0.00075   0.00000   0.00172   0.00172   2.69565
    R4        1.83654  -0.01439   0.00000  -0.02612  -0.02612   1.81042
    R5        2.70135  -0.00093   0.00000  -0.00216  -0.00216   2.69919
    R6        1.83665  -0.01428   0.00000  -0.02592  -0.02592   1.81073
    R7        2.68960  -0.00670   0.00000  -0.01521  -0.01521   2.67440
    R8        1.83792  -0.01109   0.00000  -0.02018  -0.02018   1.81774
    R9        2.69557  -0.02026   0.00000  -0.04646  -0.04646   2.64911
   R10        2.68199  -0.00411   0.00000  -0.00919  -0.00919   2.67279
   R11        2.67530   0.00182   0.00000   0.00402   0.00402   2.67931
   R12        1.83793  -0.01232   0.00000  -0.02242  -0.02242   1.81551
   R13        2.89134   0.00390   0.00000   0.01299   0.01243   2.90378
   R14        2.90030  -0.00801   0.00000  -0.02660  -0.02722   2.87308
   R15        2.07430   0.00399   0.00000   0.01106   0.01106   2.08536
   R16        2.88630  -0.00131   0.00000   0.00119   0.00131   2.88761
   R17        2.07307   0.00406   0.00000   0.01125   0.01125   2.08431
   R18        2.88440  -0.00654   0.00000  -0.02051  -0.02051   2.86389
   R19        2.07461   0.00400   0.00000   0.01110   0.01110   2.08571
   R20        2.89032  -0.00295   0.00000  -0.00884  -0.00819   2.88213
   R21        2.07283  -0.00016   0.00000  -0.00044  -0.00044   2.07239
   R22        2.07358   0.00261   0.00000   0.00722   0.00722   2.08080
   R23        2.06932   0.00537   0.00000   0.01477   0.01477   2.08409
   R24        2.06697  -0.00017   0.00000  -0.00045  -0.00045   2.06651
   R25        2.06692  -0.00025   0.00000  -0.00068  -0.00068   2.06624
   R26        2.06843   0.00389   0.00000   0.01069   0.01069   2.07913
   R27        2.06641   0.00371   0.00000   0.01016   0.01016   2.07657
    A1        1.97786   0.00145   0.00000  -0.00481  -0.00405   1.97380
    A2        1.88058   0.00260   0.00000   0.01438   0.01438   1.89496
    A3        1.87934   0.00329   0.00000   0.01818   0.01818   1.89752
    A4        1.88046  -0.00213   0.00000  -0.01179  -0.01179   1.86867
    A5        1.94351   0.00135   0.00000   0.00497   0.00497   1.94848
    A6        1.87846  -0.00278   0.00000  -0.01534  -0.01534   1.86312
    A7        1.88561   0.01204   0.00000   0.07230   0.07208   1.95769
    A8        1.92550  -0.01109   0.00000  -0.06453  -0.06374   1.86176
    A9        1.87918   0.00185   0.00000   0.03042   0.02899   1.90816
   A10        1.94059  -0.00240   0.00000  -0.01006  -0.00991   1.93068
   A11        1.91272  -0.00232   0.00000  -0.01283  -0.01397   1.89876
   A12        1.91893   0.00219   0.00000  -0.01268  -0.01285   1.90608
   A13        1.88968   0.00852   0.00000   0.05708   0.05722   1.94690
   A14        1.90392  -0.00798   0.00000  -0.03650  -0.03666   1.86727
   A15        1.86161   0.00339   0.00000   0.04232   0.04230   1.90391
   A16        1.93013   0.00177   0.00000   0.01156   0.01118   1.94132
   A17        1.94244  -0.00525   0.00000  -0.04179  -0.04242   1.90001
   A18        1.93390  -0.00031   0.00000  -0.02978  -0.03024   1.90367
   A19        1.93507   0.00096   0.00000  -0.01163  -0.01220   1.92288
   A20        1.86698  -0.00664   0.00000  -0.03255  -0.03207   1.83491
   A21        1.90106   0.00273   0.00000   0.01964   0.01986   1.92092
   A22        1.95551   0.00557   0.00000   0.01750   0.01724   1.97276
   A23        1.92445  -0.00351   0.00000  -0.00535  -0.00522   1.91923
   A24        1.87854   0.00083   0.00000   0.01278   0.01268   1.89121
   A25        1.90846   0.00978   0.00000   0.05618   0.05593   1.96439
   A26        1.92499  -0.00163   0.00000  -0.00877  -0.00894   1.91605
   A27        1.87161  -0.00299   0.00000  -0.01843  -0.01887   1.85274
   A28        1.94922  -0.00722   0.00000  -0.02377  -0.02332   1.92590
   A29        1.89667   0.00071   0.00000   0.00616   0.00582   1.90249
   A30        1.91104   0.00156   0.00000  -0.01096  -0.01111   1.89993
   A31        1.95904   0.00125   0.00000  -0.01961  -0.02127   1.93777
   A32        1.92787   0.01020   0.00000   0.03156   0.03039   1.95825
   A33        1.87001  -0.00581   0.00000  -0.02212  -0.02361   1.84639
   A34        1.96500  -0.01874   0.00000  -0.10282  -0.10320   1.86179
   A35        1.86347   0.00901   0.00000   0.06903   0.07116   1.93463
   A36        1.87261   0.00479   0.00000   0.05289   0.05380   1.92642
   A37        1.89420   0.00628   0.00000   0.03041   0.03045   1.92465
   A38        1.88132   0.00449   0.00000   0.05598   0.05625   1.93757
   A39        1.89424  -0.00275   0.00000  -0.01665  -0.01627   1.87797
   A40        1.94524  -0.00642   0.00000  -0.03442  -0.03562   1.90962
   A41        1.94815  -0.00352   0.00000  -0.03291  -0.03337   1.91478
   A42        1.89887   0.00226   0.00000   0.00111  -0.00007   1.89880
   A43        1.88480  -0.00366   0.00000  -0.01793  -0.01796   1.86684
   A44        1.93653  -0.00065   0.00000  -0.00512  -0.00518   1.93136
   A45        1.94694  -0.00097   0.00000  -0.00619  -0.00624   1.94070
   A46        1.88804   0.00285   0.00000   0.01735   0.01731   1.90536
   A47        1.88168   0.00369   0.00000   0.02331   0.02329   1.90497
   A48        1.92362  -0.00106   0.00000  -0.00987  -0.00995   1.91367
    D1        1.05227  -0.00306   0.00000   0.02640   0.02659   1.07886
    D2       -3.09408   0.00007   0.00000   0.01987   0.02047  -3.07361
    D3       -1.06835  -0.00109   0.00000   0.02754   0.02794  -1.04041
    D4        1.15553  -0.01289   0.00000  -0.13603  -0.13615   1.01938
    D5       -1.05312   0.00297   0.00000  -0.00951  -0.00906  -1.06218
    D6       -3.08744  -0.00484   0.00000  -0.07670  -0.07631   3.11944
    D7        1.18246   0.00450   0.00000   0.08006   0.08192   1.26438
    D8       -2.97610   0.00244   0.00000   0.07425   0.07374  -2.90237
    D9       -0.88196  -0.00022   0.00000   0.03993   0.03859  -0.84337
   D10        1.18501   0.00188   0.00000   0.07056   0.07197   1.25698
   D11       -2.99671   0.00442   0.00000   0.09711   0.09720  -2.89951
   D12       -0.90707   0.00166   0.00000   0.06601   0.06451  -0.84256
   D13        1.13947  -0.00168   0.00000   0.01958   0.01994   1.15941
   D14       -1.01048   0.00189   0.00000   0.01749   0.01741  -0.99308
   D15       -3.09022   0.00271   0.00000   0.04661   0.04633  -3.04389
   D16        0.95305  -0.00030   0.00000   0.01713   0.01470   0.96775
   D17        3.14152  -0.00052   0.00000  -0.03810  -0.03530   3.10622
   D18       -1.09108   0.00052   0.00000   0.01230   0.01193  -1.07916
   D19        3.03729  -0.00038   0.00000  -0.00530  -0.00529   3.03200
   D20        0.97087  -0.00124   0.00000  -0.01250  -0.01246   0.95840
   D21       -1.18120   0.00129   0.00000   0.00842   0.00837  -1.17283
   D22       -1.01849   0.00013   0.00000  -0.00373  -0.00449  -1.02298
   D23        1.09061  -0.00136   0.00000   0.00497   0.00579   1.09640
   D24       -3.13873   0.00229   0.00000   0.02794   0.02787  -3.11086
   D25       -1.21460  -0.00760   0.00000  -0.02805  -0.02766  -1.24227
   D26        2.98354  -0.00417   0.00000  -0.02559  -0.02594   2.95761
   D27        0.82604  -0.00132   0.00000   0.03412   0.03352   0.85956
   D28        2.95330  -0.00024   0.00000   0.01091   0.01128   2.96458
   D29        0.86826   0.00319   0.00000   0.01337   0.01301   0.88127
   D30       -1.28924   0.00604   0.00000   0.07308   0.07246  -1.21677
   D31        0.82824   0.00015   0.00000   0.04217   0.04266   0.87090
   D32       -1.25679   0.00358   0.00000   0.04463   0.04439  -1.21241
   D33        2.86889   0.00644   0.00000   0.10434   0.10384   2.97274
   D34       -3.03642  -0.00645   0.00000  -0.07098  -0.07082  -3.10724
   D35        1.16229  -0.00240   0.00000  -0.03345  -0.03331   1.12898
   D36       -0.92960  -0.00473   0.00000  -0.05749  -0.05737  -0.98696
   D37       -0.94468  -0.00023   0.00000  -0.02941  -0.02903  -0.97370
   D38       -3.02915   0.00382   0.00000   0.00812   0.00849  -3.02067
   D39        1.16214   0.00149   0.00000  -0.01593  -0.01557   1.14658
   D40        1.17676  -0.00327   0.00000  -0.06086  -0.06119   1.11558
   D41       -0.90772   0.00079   0.00000  -0.02334  -0.02367  -0.93139
   D42       -2.99960  -0.00154   0.00000  -0.04738  -0.04773  -3.04733
   D43        1.19386  -0.00198   0.00000  -0.03276  -0.03223   1.16163
   D44       -2.95381  -0.00209   0.00000  -0.02080  -0.02076  -2.97457
   D45       -0.84384  -0.00423   0.00000  -0.04539  -0.04518  -0.88902
   D46       -3.01290   0.00458   0.00000   0.02157   0.02154  -2.99136
   D47       -0.87738   0.00447   0.00000   0.03353   0.03300  -0.84438
   D48        1.23259   0.00233   0.00000   0.00894   0.00859   1.24118
   D49       -0.85048  -0.00111   0.00000  -0.04491  -0.04499  -0.89548
   D50        1.28503  -0.00122   0.00000  -0.03294  -0.03353   1.25151
   D51       -2.88818  -0.00337   0.00000  -0.05754  -0.05794  -2.94613
   D52        1.00930   0.00238   0.00000   0.04177   0.04191   1.05122
   D53       -1.05984  -0.00327   0.00000  -0.02566  -0.02487  -1.08470
   D54        3.09611   0.00088   0.00000   0.02073   0.02054   3.11666
   D55        3.13331   0.00255   0.00000   0.01639   0.01592  -3.13395
   D56        1.06417  -0.00310   0.00000  -0.05104  -0.05086   1.01332
   D57       -1.06306   0.00105   0.00000  -0.00465  -0.00545  -1.06851
   D58       -1.03135   0.00218   0.00000   0.02911   0.02912  -1.00223
   D59       -3.10049  -0.00346   0.00000  -0.03831  -0.03766  -3.13815
   D60        1.05546   0.00068   0.00000   0.00808   0.00775   1.06321
   D61        3.08131   0.00163   0.00000   0.01980   0.01955   3.10086
   D62        0.87598   0.00632   0.00000   0.09999   0.09931   0.97529
   D63       -1.16918   0.00288   0.00000   0.04047   0.04139  -1.12779
   D64        0.95530  -0.00477   0.00000  -0.02945  -0.02937   0.92593
   D65       -1.25002  -0.00008   0.00000   0.05074   0.05039  -1.19964
   D66        2.98800  -0.00351   0.00000  -0.00878  -0.00753   2.98046
   D67       -1.14628  -0.00205   0.00000  -0.01455  -0.01489  -1.16117
   D68        2.93158   0.00264   0.00000   0.06565   0.06487   2.99645
   D69        0.88641  -0.00080   0.00000   0.00613   0.00695   0.89336
         Item               Value     Threshold  Converged?
 Maximum Force            0.020261     0.000450     NO 
 RMS     Force            0.005317     0.000300     NO 
 Maximum Displacement     0.465211     0.001800     NO 
 RMS     Displacement     0.101973     0.001200     NO 
 Predicted change in Energy=-1.267092D-02
 GradGradGradGradGradGradGradGradGradGradGradGradGradGradGradGradGradGrad

                          Input orientation:                          
 ---------------------------------------------------------------------
 Center     Atomic      Atomic             Coordinates (Angstroms)
 Number     Number       Type             X           Y           Z
 ---------------------------------------------------------------------
      1          8           0       -0.833987   -0.590998   -0.868677
      2          8           0       -0.260029    2.470344    0.989963
      3          8           0        2.482560    1.697723   -0.018042
      4          8           0        2.733231   -1.165506   -0.306897
      5          8           0        0.309326   -1.860591    0.694368
      6          8           0       -3.430582    0.033539   -0.264799
      7          6           0        0.039856    1.482573    0.005476
      8          6           0        1.398233    0.808983    0.255005
      9          6           0       -1.083106    0.459010    0.058413
     10          6           0        1.584120   -0.411801   -0.645049
     11          6           0        0.347851   -1.303355   -0.591396
     12          6           0       -2.427047    1.031944   -0.344491
     13          6           0       -0.831286   -2.677215    0.874945
     14          1           0        0.054771    1.953951   -0.992194
     15          1           0        1.449881    0.490370    1.309692
     16          1           0       -1.171819    0.049407    1.079457
     17          1           0        1.733430   -0.074616   -1.677853
     18          1           0        0.409752   -2.091165   -1.358188
     19          1           0       -2.358873    1.443572   -1.365374
     20          1           0       -2.705727    1.836394    0.341842
     21          1           0        0.301829    3.231592    0.839475
     22          1           0        2.517743    2.361172    0.672422
     23          1           0        2.577517   -1.542076    0.564429
     24          1           0       -3.159913   -0.678426   -0.850325
     25          1           0       -0.727747   -3.158421    1.851296
     26          1           0       -0.882215   -3.450962    0.094420
     27          1           0       -1.753469   -2.079740    0.863585
 ---------------------------------------------------------------------
                    Distance matrix (angstroms):
                    1          2          3          4          5
     1  O    0.000000
     2  O    3.627090   0.000000
     3  O    4.118411   3.022385   0.000000
     4  O    3.656597   4.884757   2.888659   0.000000
     5  O    2.315630   4.378189   4.229902   2.713114   0.000000
     6  O    2.738069   4.191045   6.147817   6.279497   4.300540
     7  C    2.414009   1.426477   2.452274   3.790009   3.424023
     8  C    2.864509   2.459698   1.428348   2.448787   2.916399
     9  C    1.422699   2.364467   3.775477   4.163764   2.779182
    10  C    2.435028   3.792217   2.377062   1.415229   2.349070
    11  C    1.407507   4.136546   3.727222   2.406238   1.401851
    12  C    2.333785   2.923308   4.965287   5.608803   4.115060
    13  C    2.718921   5.180437   5.560493   4.048184   1.414382
    14  H    2.698501   2.072367   2.628457   4.168308   4.178519
    15  H    3.336270   2.635586   2.070509   2.646181   2.684494
    16  H    2.078335   2.588495   4.156433   4.318264   2.447484
    17  H    2.740993   4.191412   2.541132   2.017217   3.293207
    18  H    2.009230   5.173952   4.521968   2.713045   2.067907
    19  H    2.590649   3.317683   5.031836   5.818693   4.720097
    20  H    3.295603   2.608332   5.202602   6.246161   4.783567
    21  H    4.338208   0.958034   2.800657   5.153674   5.094256
    22  H    4.724869   2.797994   0.958198   3.666464   4.764543
    23  H    3.820563   4.932774   3.293111   0.961904   2.294129
    24  H    2.327641   4.659478   6.178695   5.938157   3.977337
    25  H    3.741818   5.713462   6.114133   4.539589   2.024442
    26  H    3.018158   6.020878   6.151692   4.296023   2.075810
    27  H    2.462221   4.790573   5.743729   4.726132   2.081293
                    6          7          8          9         10
     6  O    0.000000
     7  C    3.770502   0.000000
     8  C    4.918228   1.536612   0.000000
     9  C    2.407517   1.520370   2.513597   0.000000
    10  C    5.048778   2.529148   1.528060   2.892623   0.000000
    11  C    4.021257   2.865747   2.506326   2.361317   1.525158
    12  C    1.417832   2.532025   3.878385   1.515507   4.273663
    13  C    3.924735   4.338052   4.184334   3.250545   3.643716
    14  H    4.045340   1.103524   2.161330   2.152530   2.838345
    15  H    5.148460   2.161855   1.102972   2.825368   2.157069
    16  H    2.628552   2.162303   2.803898   1.103710   3.283570
    17  H    5.354946   2.850724   2.151521   3.351455   1.096663
    18  H    4.523056   3.842916   3.462708   3.277007   2.169786
    19  H    2.085191   2.763087   4.140553   2.150375   4.416840
    20  H    2.035611   2.788648   4.231501   2.147188   4.942785
    21  H    5.037644   1.955314   2.722635   3.196140   4.137922
    22  H    6.455915   2.712321   1.958783   4.118415   3.208857
    23  H    6.266374   3.987562   2.648383   4.202447   1.930595
    24  H    0.960727   3.954848   4.920450   2.536275   4.755952
    25  H    4.687407   5.053226   4.775796   4.052964   4.372686
    26  H    4.331854   5.019750   4.834600   3.915295   3.983230
    27  H    2.924364   4.079514   4.318369   2.746441   4.024611
                   11         12         13         14         15
    11  C    0.000000
    12  C    3.635194   0.000000
    13  C    2.329809   4.217978   0.000000
    14  H    3.294932   2.725626   5.071390   0.000000
    15  H    2.836557   4.249729   3.927635   3.063834   0.000000
    16  H    2.632700   2.137429   2.755405   3.069780   2.668476
    17  H    2.147095   4.506872   4.457361   2.720865   3.053692
    18  H    1.101111   4.339218   2.621167   4.077122   3.855357
    19  H    3.933319   1.102854   4.932894   2.495080   4.750914
    20  H    4.478090   1.093552   4.916339   3.068195   4.474102
    21  H    4.755549   3.699593   6.016577   2.246868   3.008891
    22  H    4.442345   5.220336   6.053293   3.000502   2.246407
    23  H    2.522763   5.700647   3.606231   4.583615   2.440864
    24  H    3.572392   1.928296   3.520543   4.157370   5.223213
    25  H    3.250373   5.026754   1.093407   5.902043   4.283582
    26  H    2.568195   4.761890   1.100226   5.592116   4.738106
    27  H    2.671196   3.405250   1.098876   4.794195   4.131092
                   16         17         18         19         20
    16  H    0.000000
    17  H    4.007319   0.000000
    18  H    3.609089   2.433265   0.000000
    19  H    3.054504   4.376012   4.489955   0.000000
    20  H    2.467848   5.238057   5.293583   1.785834   0.000000
    21  H    3.515043   4.395160   5.759610   3.890720   3.352553
    22  H    4.372963   3.474478   5.328256   5.364326   5.260164
    23  H    4.105556   2.809582   2.949096   6.083271   6.275052
    24  H    2.864666   4.999419   3.872501   2.325901   2.819905
    25  H    3.329128   5.293594   3.568435   5.846869   5.580236
    26  H    3.647842   4.624096   2.372404   5.316765   5.598441
    27  H    2.217698   4.757929   3.100956   4.212897   4.063879
                   21         22         23         24         25
    21  H    0.000000
    22  H    2.386591   0.000000
    23  H    5.295499   3.905199   0.000000
    24  H    5.488835   6.617680   5.972062   0.000000
    25  H    6.551036   6.510673   3.897868   4.400518   0.000000
    26  H    6.827415   6.758306   3.979259   3.710446   1.787750
    27  H    5.695180   6.164535   4.374474   2.622833   1.786402
                   26         27
    26  H    0.000000
    27  H    1.797484   0.000000
 Stoichiometry    C7H14O6
 Framework group  C1[X(C7H14O6)]
 Deg. of freedom    75
 Full point group                 C1      NOp   1
 Largest Abelian subgroup         C1      NOp   1
 Largest concise Abelian subgroup C1      NOp   1
                         Standard orientation:                         
 ---------------------------------------------------------------------
 Center     Atomic      Atomic             Coordinates (Angstroms)
 Number     Number       Type             X           Y           Z
 ---------------------------------------------------------------------
      1          8           0        0.850047    0.569956   -0.856790
      2          8           0        0.144410   -2.501385    0.938961
      3          8           0       -2.556446   -1.612339   -0.085627
      4          8           0       -2.700695    1.262778   -0.324884
      5          8           0       -0.265521    1.851876    0.716211
      6          8           0        3.415155   -0.158631   -0.235173
      7          6           0       -0.108047   -1.485994   -0.030619
      8          6           0       -1.444247   -0.768357    0.215844
      9          6           0        1.050226   -0.504761    0.053695
     10          6           0       -1.575431    0.474232   -0.663775
     11          6           0       -0.308678    1.319458   -0.579881
     12          6           0        2.377444   -1.118562   -0.344428
     13          6           0        0.901437    2.623420    0.924551
     14          1           0       -0.127968   -1.938624   -1.036846
     15          1           0       -1.497006   -0.466984    1.275531
     16          1           0        1.141395   -0.116939    1.082995
     17          1           0       -1.724413    0.161167   -1.704191
     18          1           0       -0.333100    2.122566   -1.332788
     19          1           0        2.306725   -1.509152   -1.373373
     20          1           0        2.618853   -1.944686    0.330179
     21          1           0       -0.442579   -3.239036    0.768247
     22          1           0       -2.623664   -2.286317    0.592147
     23          1           0       -2.541973    1.617849    0.554884
     24          1           0        3.177228    0.572992   -0.810598
     25          1           0        0.803596    3.090528    1.908307
     26          1           0        0.989424    3.408647    0.158930
     27          1           0        1.801645    1.993332    0.912672
 ---------------------------------------------------------------------
 Rotational constants (GHZ):           0.9728076           0.7314896           0.4769248
 Standard basis: 6-311++G(d,p) (5D, 7F)
 There are   397 symmetry adapted cartesian basis functions of A   symmetry.
 There are   384 symmetry adapted basis functions of A   symmetry.
   384 basis functions,   594 primitive gaussians,   397 cartesian basis functions
    52 alpha electrons       52 beta electrons
       nuclear repulsion energy       958.1049345380 Hartrees.
 NAtoms=   27 NActive=   27 NUniq=   27 SFac= 1.00D+00 NAtFMM=   60 NAOKFM=F Big=F
 Integral buffers will be    131072 words long.
 Raffenetti 2 integral format.
 Two-electron integral symmetry is turned on.
 R6APFD:  NTU= -4 IXU= 1 FactS= 1.050
 Nuclear repulsion after empirical dispersion term =      958.0768086258 Hartrees.
 One-electron integrals computed using PRISM.
 NBasis=   384 RedAO= T EigKep=  3.67D-06  NBF=   384
 NBsUse=   384 1.00D-06 EigRej= -1.00D+00 NBFU=   384
 Initial guess from the checkpoint file:  "MADG0131.chk"
 B after Tr=    -0.000000    0.000000    0.000000
         Rot=    0.998723   -0.009169   -0.002691   -0.049607 Ang=  -5.79 deg.
 ExpMin= 3.60D-02 ExpMax= 8.59D+03 ExpMxC= 1.30D+03 IAcc=3 IRadAn=         5 AccDes= 0.00D+00
 Harris functional with IExCor= 1009 and IRadAn=       5 diagonalized for initial guess.
 HarFok:  IExCor= 1009 AccDes= 0.00D+00 IRadAn=         5 IDoV= 1 UseB2=F ITyADJ=14
 ICtDFT=  3500011 ScaDFX=  1.000000  1.000000  1.000000  1.000000
 FoFCou: FMM=F IPFlag=           0 FMFlag=      100000 FMFlg1=           0
         NFxFlg=           0 DoJE=T BraDBF=F KetDBF=T FulRan=T
         wScrn=  0.000000 ICntrl=       500 IOpCl=  0 I1Cent=   200000004 NGrid=           0
         NMat0=    1 NMatS0=      1 NMatT0=    0 NMatD0=    1 NMtDS0=    0 NMtDT0=    0
 Petite list used in FoFCou.
 Requested convergence on RMS density matrix=1.00D-08 within  32 cycles.
 Requested convergence on MAX density matrix=1.00D-06.
 Requested convergence on             energy=1.00D-06.
 No special actions if energy rises.
 SCF Done:  E(RM08HX) =  -726.487919022     A.U. after   13 cycles
            NFock= 13  Conv=0.31D-08     -V/T= 2.0039
 QCSCF skips out because SCF is already converged.
 R6APFD:  NTU= -4 IXU= 1 FactS= 1.050
 Calling FoFJK, ICntrl=      2127 FMM=F ISym2X=0 I1Cent= 0 IOpClX= 0 NMat=1 NMatS=1 NMatT=0.
[...]
 0.00007055,0.00000535,0.00001969,0.00004919,-0.00004125,0.00004643,0.0
 0002596,-0.00001096,0.00001271,-0.00014504,-0.00004271,0.00016775,0.00
 000817,0.00000011,-0.00000463,0.00009647,-0.00006686,0.00003420,-0.003
 48734,0.01012129,0.00749052,-0.05845397,0.20479447,-0.00249283,0.00132
 844,0.00051560,-0.00096034,-0.00009888,-0.00033908,0.00009423,0.000019
 76,0.00000292,0.00000374,-0.00001098,0.00000414,0.00017659,-0.00011898
 ,0.00000422,-0.00251752,0.00129099,0.00396570,0.00091827,-0.00081185,-
 0.00017752,-0.00005208,0.00013993,0.00002553,-0.00238408,0.00743124,0.
 00583308,0.00001641,0.00002482,-0.00002754,-0.00035921,0.00045333,0.00
 081054,0.05346590,-0.12365654,-0.16324244,-0.00001647,-0.00000102,0.00
 000005,0.00000131,-0.00012064,0.00006999,0.00000139,-0.00000222,-0.000
 00645,0.00057550,0.00017311,0.00039474,-0.00001468,-0.00000138,0.00000
 731,-0.00018304,0.00015352,-0.00004420,0.00967264,-0.01980978,-0.01642
 796,-0.05565230,0.13168582,0.16743150,0.00019381,0.00186366,0.00072024
 ,-0.37222473,-0.25057945,-0.03815558,-0.00005903,-0.00134836,-0.000421
 98,-0.00039883,-0.00007787,-0.00014747,-0.00030966,0.00001565,-0.00013
 053,0.00021045,0.00002102,-0.00010275,0.01009956,0.00843632,0.00222661
 ,0.00275019,0.00479359,0.00132980,-0.00094681,0.00162650,0.00086502,-0
 .00050087,-0.00049391,-0.00000943,0.00096764,-0.00070014,0.00005364,-0
 .00042395,0.00025403,0.00035130,0.00009376,-0.00001001,-0.00001626,-0.
 00027249,0.00025788,0.00087091,-0.00018445,-0.00023892,-0.00008232,0.0
 0005069,0.00005806,-0.00004879,0.00005324,0.00000333,-0.00001418,-0.00
 014475,-0.00001986,0.00000751,0.00001823,-0.00004195,-0.00011414,0.000
 17970,-0.00025626,-0.00012500,0.36131394,-0.00080648,-0.00193908,-0.00
 049938,-0.21059223,-0.18112594,-0.04649504,-0.00030616,0.00024972,0.00
 044949,-0.00045548,0.00103808,0.00024783,0.00040557,0.00027702,0.00008
 591,0.00018987,0.00026247,0.00026160,-0.02694104,-0.02430038,-0.005515
 87,-0.00134043,-0.00132959,0.00034490,0.00349005,-0.00277906,-0.004263
 67,-0.00051558,-0.00064422,-0.00050833,-0.00113359,0.00022945,-0.00018
 588,0.00026367,0.00001819,-0.00030479,-0.00018990,-0.00015722,0.000047
 19,-0.00000797,0.00093903,0.00030666,0.00036968,-0.00054952,0.00024301
 ,0.00015864,0.00020927,0.00018175,-0.00002245,0.00009059,0.00014370,0.
 00016869,0.00008858,0.00001129,-0.00007104,-0.00004043,0.00005901,-0.0
 0029568,0.00013617,0.00007903,0.23710152,0.20899260,-0.00055705,-0.001
 32826,0.00009258,-0.01104436,-0.03186184,-0.02365939,-0.00040250,-0.00
 002273,-0.00156444,-0.00002869,0.00019512,-0.00013530,0.00002269,0.000
 07636,-0.00009848,0.00014512,0.00028486,0.00000723,-0.02273966,-0.0210
 9482,-0.00520182,0.00012563,-0.00077193,0.00229547,0.00233170,-0.00099
 475,-0.00278902,-0.00011864,0.00015287,-0.00010696,-0.00013337,-0.0000
 0105,0.00008257,0.00004353,-0.00009865,0.00008924,0.00000344,-0.000029
 11,0.00000809,-0.00072966,-0.00055352,-0.00077962,-0.00001544,0.000602
 54,-0.00031587,-0.00004535,-0.00014636,0.00010815,0.00004967,-0.000135
 65,-0.00017464,0.00002267,0.00000575,-0.00001086,-0.00005730,0.0000670
 7,-0.00002863,-0.00030190,-0.00002341,-0.00006101,0.03320953,0.0549081
 1,0.03208291,0.00034717,-0.00012545,-0.00002039,0.00120302,-0.00046050
 ,-0.00028050,-0.41196585,0.17801679,-0.05239425,-0.00021137,0.00027777
 ,0.00012938,0.00037751,0.00045457,-0.00006745,-0.00006156,0.00002779,-
 0.00002094,-0.00316649,-0.00501876,0.00155751,-0.03072001,0.01169867,-
 0.00492780,-0.00119343,0.00128060,-0.00042649,0.00129346,0.00057070,-0
 .00086067,-0.00109144,0.00068742,0.00040634,-0.00006279,-0.00048728,0.
 00007839,-0.00023819,-0.00018042,0.00005327,0.00036738,-0.00009455,0.0
 0008772,0.00046022,0.00066478,0.00026753,-0.00001805,0.00001247,0.0000
 4064,-0.00005540,-0.00032125,-0.00019690,0.00032116,0.00020835,-0.0000
 1436,0.00000673,0.00002074,-0.00001641,-0.00000520,0.00001045,0.000012
 16,-0.00038792,0.00042115,0.00017886,0.44460430,0.00121240,-0.00045244
 ,-0.00014688,0.00092650,0.00031900,0.00000148,0.22598878,-0.15404673,0
 .03738883,0.00254342,0.00224029,0.00182531,0.00071271,0.00008464,-0.00
 011620,-0.00028374,-0.00014981,-0.00004961,-0.00383236,-0.00540194,-0.
 00003141,-0.03168900,0.01286769,-0.00439406,-0.00158458,0.00171513,-0.
 00014680,-0.00457563,0.00077038,-0.00231453,-0.00075196,0.00007563,0.0
 0010996,0.00003703,-0.00048361,0.00003432,-0.00025301,-0.00021279,0.00
 006313,0.00009781,-0.00000333,-0.00013025,-0.00040344,-0.00031766,0.00
 077751,0.00005736,0.00003721,-0.00003071,0.00022607,-0.00008683,-0.000
 05653,-0.00000828,-0.00000804,-0.00004795,-0.00000775,0.00001695,-0.00
 001221,0.00003056,0.00000433,0.00001671,-0.00071675,0.00049841,0.00078
 178,-0.18753756,0.14330995,0.00050298,-0.00026108,-0.00029163,0.000512
 23,0.00010839,-0.00007229,-0.05944241,0.03383019,-0.01447636,0.0001407
 1,0.00027893,-0.00223888,0.00043446,0.00022263,-0.00046187,-0.00004720
 ,-0.00003298,-0.00005290,-0.00080882,-0.00102480,-0.00029860,0.0034778
 0,-0.00067819,0.00026043,-0.00016820,0.00049674,0.00069654,-0.00153789
 ,-0.00000347,0.00112882,-0.00102603,0.00012329,0.00035079,0.00006676,-
 0.00006127,0.00006729,-0.00012059,-0.00009183,-0.00004814,0.00020778,-
 0.00002385,0.00012122,0.00122538,-0.00000236,-0.00008057,-0.00002121,-
 0.00006194,-0.00005295,-0.00026374,-0.00032737,-0.00078005,0.00013814,
 0.00008949,-0.00005788,-0.00002043,0.00000701,-0.00001015,0.00002222,-
 0.00000575,-0.00000076,-0.00030834,0.00046731,0.00009450,0.05644692,-0
 .03389053,0.01546001,0.00152665,-0.00161442,0.00108188,-0.00030502,-0.
 00012149,0.00003398,-0.00060671,-0.00077002,-0.00007649,-0.07061355,-0
 .07026548,0.11782044,0.00098957,0.00064648,0.00044904,0.00010022,-0.00
 021508,0.00009223,0.00010100,0.00029421,0.00017221,0.00033915,0.000417
 66,-0.00100162,0.00005996,0.00084268,0.00021387,0.00368991,0.02446964,
 -0.03462137,-0.00248017,0.00320482,-0.00645794,-0.00004129,-0.00000429
 ,-0.00004814,-0.00085931,-0.00260821,0.00147345,0.00010508,-0.00012551
 ,0.00016910,0.00003905,0.00033592,0.00091007,-0.00009551,0.00000231,0.
 00007054,-0.00545922,0.00298120,-0.00185207,-0.00004815,-0.00019319,0.
 00036897,0.00002670,-0.00002139,0.00005745,0.00006405,-0.00001788,-0.0
 0000832,0.00004317,-0.00000505,-0.00000641,0.00017043,-0.00024160,0.00
 055418,0.07236767,-0.00001677,-0.00130886,0.00027854,-0.00044606,0.000
 39089,0.00000917,0.00000663,0.00026172,-0.00069753,-0.04116003,-0.1618
 2300,0.21945257,0.00020762,-0.00210683,0.00043473,-0.00023161,-0.00023
 970,-0.00000508,0.00090397,0.00009504,-0.00046668,-0.00106066,-0.00089
 209,0.00180361,0.00013707,0.00066662,0.00024375,-0.00093656,-0.0133090
 6,0.01946601,-0.00083826,0.00400690,-0.00162972,0.00018682,-0.00001427
 ,-0.00001745,-0.00042451,-0.00035373,-0.00015922,-0.00037244,0.0001589
 5,-0.00013860,0.00061507,-0.00054479,-0.00115978,0.00002001,0.00002241
 ,0.00000561,0.00170876,-0.00020810,-0.00103080,-0.00018168,-0.00030066
 ,-0.00016445,-0.00000684,-0.00000976,0.00002031,0.00004856,-0.00000862
 ,0.00000106,0.00013098,-0.00022591,0.00002828,-0.00020424,-0.00090204,
 0.00078139,0.04198061,0.17651843,0.00156857,-0.00028351,-0.00077664,0.
 00017086,-0.00033227,-0.00022900,0.00027255,-0.00030344,-0.00091817,0.
 07972962,0.22853900,-0.33834572,0.00156596,-0.00008346,-0.00107831,0.0
 0007707,-0.00003437,-0.00002020,-0.00000150,-0.00022731,-0.00050482,0.
 00062029,-0.00099691,0.00320060,-0.00012822,0.00039845,0.00056944,-0.0
 0066641,0.00844587,-0.01321478,-0.00119733,0.00048310,0.00078392,-0.00
 002161,-0.00006117,-0.00010254,-0.00011891,-0.00018283,-0.00013126,-0.
 00004281,0.00003205,-0.00009492,0.00023427,0.00029468,-0.00064869,0.00
 004518,-0.00001773,-0.00008117,-0.00258631,0.00120547,0.00065284,-0.00
 034541,-0.00020396,-0.00048829,-0.00001479,0.00001181,0.00000163,0.000
 05234,-0.00001703,0.00000842,0.00002888,0.00001586,0.00006782,0.000002
 50,0.00037740,0.00073802,-0.07921417,-0.23705047,0.35079225,0.00120860
 ,-0.00050144,0.00069515,-0.00007483,0.00071423,0.00027488,0.00029292,0
 .00034719,0.00009058,0.00078179,0.00013317,0.00021191,0.00033816,-0.00
 082058,0.00093213,-0.09118881,0.13134024,0.12697545,-0.00008941,-0.000
 54330,0.00013265,-0.00021500,-0.00023031,-0.00018287,0.00017498,-0.004
 34909,-0.00313466,-0.00010688,-0.00062394,0.00021435,-0.00196111,0.003
 23383,-0.00072773,0.00682234,-0.02718823,-0.01916516,-0.00013825,0.000
 38082,0.00021409,0.00006976,0.00004340,-0.00000409,-0.00000841,0.00001
 065,-0.00000356,-0.00017354,0.00029389,0.00014241,-0.00002071,-0.00000
 815,0.00000092,0.00007222,-0.00006817,-0.00001958,0.00017670,-0.000216
 99,0.00078131,-0.00350710,-0.00384956,-0.00017551,-0.00005568,0.000042
 99,0.00005795,-0.00006795,-0.00006174,-0.00003737,-0.00017103,-0.00000
 338,-0.00010295,0.08740862,0.00102029,-0.00120995,0.00025489,-0.000113
 12,-0.00007306,0.00007116,0.00022840,-0.00011680,0.00001321,0.00008239
 ,-0.00019739,0.00003039,-0.00066484,-0.00090072,0.00055144,0.09239183,
 -0.28784064,-0.20963220,0.00063167,-0.00075610,-0.00024734,-0.00009284
 ,0.00034401,0.00002702,0.00014765,0.00148301,-0.00069622,0.00004115,0.
 00007119,0.00000664,-0.00022435,0.00120529,-0.00037739,0.00692052,-0.0
 2938518,-0.02192572,0.00109979,0.00035237,-0.00039219,-0.00006358,-0.0
 0006250,0.00007554,0.00003194,-0.00001905,0.00003551,-0.00000793,-0.00
 009283,0.00007089,-0.00003888,-0.00002611,0.00001085,0.00011325,-0.000
 11745,-0.00003785,0.00118819,0.00018241,0.00003751,-0.00422421,-0.0026
 8927,0.00184528,-0.00005776,0.00001410,-0.00005068,0.00001152,0.000049
 61,0.00001390,0.00008043,0.00008272,0.00000164,-0.09817053,0.31952815,
 0.00078007,0.00112274,-0.00093780,-0.00003949,0.00016665,0.00003671,0.
 00029956,0.00008743,-0.00001860,0.00017416,0.00001059,-0.00005371,0.00
 076167,0.00052515,-0.00079369,0.10544934,-0.23510812,-0.19954660,0.000
 25371,-0.00070979,-0.00002921,-0.00011718,0.00017082,-0.00006802,0.000
 57154,-0.00118973,0.00003423,-0.00004345,-0.00000757,0.00009162,-0.000
 27685,-0.00020449,0.00057088,0.00002052,0.00292854,0.00162766,-0.00127
 841,0.00005714,0.00040610,0.00010833,0.00012143,-0.00010137,-0.0000232
 5,-0.00000655,-0.00004645,-0.00039453,-0.00000864,-0.00042044,0.000040
 30,0.00002676,-0.00002629,0.00009897,-0.00013389,-0.00006479,0.0001972
 5,0.00163260,0.00065903,-0.00002856,0.00063631,0.00124451,-0.00000883,
 -0.00006571,0.00000203,-0.00001331,0.00000507,0.00001912,-0.00011731,-
 0.00001423,-0.00000051,-0.10672043,0.22983757,0.19815220,0.00167276,0.
 00065862,-0.00041667,0.00007805,0.00001012,0.00002638,-0.00001033,-0.0
 0013429,-0.00009972,-0.00001758,0.00016765,-0.00019504,-0.00174044,-0.
 01798558,0.03234361,-0.00011177,0.00039247,-0.00011250,-0.00010492,0.0
 0000806,-0.00002134,-0.00010159,0.00018077,0.00014142,0.00008836,-0.00
 022915,-0.00004363,0.00046893,-0.00066472,0.00153862,-0.00550561,-0.00
 262410,-0.00176127,-0.00013239,-0.00024509,0.00001619,-0.05347317,0.02
 120445,-0.04442403,0.00000239,0.00001600,-0.00000207,0.00003255,-0.000
 01652,-0.00002909,-0.00004830,-0.00001024,-0.00010829,-0.00035952,-0.0
 0026924,-0.00003837,-0.00000468,0.00010811,0.00002679,0.00003015,0.000
 03708,-0.00002371,0.00001210,0.00003128,-0.00000012,-0.00001267,0.0000
 1578,0.00000006,0.00002599,0.00001029,0.00003768,-0.00002253,-0.000069
 37,0.00012130,0.00019585,-0.00027285,0.00029166,0.05970859,0.00020049,
 -0.00017916,0.00016667,0.00001493,-0.00008970,-0.00010252,-0.00004252,
 -0.00009634,-0.00012842,-0.00011764,0.00003712,-0.00018013,-0.00310054
 ,-0.01423092,0.02449135,0.00015276,-0.00016233,0.00004054,-0.00002743,
 0.00010668,0.00003489,0.00004064,0.00012969,0.00019851,-0.00010505,0.0
 0043446,0.00025229,0.00028079,-0.00018066,0.00139478,-0.00287924,-0.00
 183030,-0.00270387,0.00000908,0.00007506,-0.00003747,0.01646655,-0.090
 75598,0.09406229,-0.00000718,0.00000675,-0.00002101,-0.00001316,-0.000
 03182,-0.00003992,0.00000910,-0.00000641,0.00002635,-0.00031043,-0.000
 24548,-0.00006411,-0.00011161,0.00013220,0.00041952,-0.00001698,-0.000
 00717,0.00000250,0.00002402,-0.00002009,0.00000343,-0.00000123,0.00000
 787,0.00001941,0.00001791,0.00002512,0.00004903,0.00005196,0.00004783,
 0.00010615,-0.00012495,0.00004362,-0.00014934,-0.00963091,0.10069660,-
 0.00008582,0.00011207,0.00026471,-0.00000206,0.00011239,0.00006202,0.0
 0009441,0.00017424,0.00006827,0.00024278,-0.00010539,0.00010923,0.0028
 2104,0.00290783,-0.00304191,-0.00005462,-0.00003031,0.00002260,-0.0000
 0288,-0.00007817,0.00001115,0.00005661,-0.00008699,-0.00009830,0.00009
 034,-0.00020404,-0.00018303,-0.00055046,0.00025978,-0.00023926,0.00089
 389,-0.00013989,0.00221662,0.00005798,0.00004060,0.00002308,-0.0344439
 7,0.10113531,-0.27501671,-0.00000415,-0.00000591,0.00000081,-0.0000051
 2,0.00000674,-0.00001273,0.00002413,0.00005895,-0.00003722,0.00008470,
 0.00006816,0.00002699,-0.00012275,0.00000086,0.00035256,-0.00000335,-0
 .00000650,-0.00000383,-0.00001928,0.00001026,-0.00000024,0.00000008,-0
 .00002042,-0.00000803,-0.00004047,-0.00002180,-0.00002689,-0.00010979,
 0.00010997,-0.00011062,0.00007527,-0.00002411,-0.00000832,0.03482882,-
 0.11206243,0.29108897,0.00032246,-0.00061168,0.00037386,0.00004001,-0.
 00007797,-0.00003037,-0.00003889,-0.00015933,0.00010804,-0.00010174,0.
 00007586,0.00010152,-0.00660650,-0.02812045,-0.01670491,-0.00012182,0.
 00019609,-0.00024346,-0.00011171,0.00004818,-0.00018610,0.00003964,0.0
 0015075,-0.00016651,-0.00009390,0.00019347,0.00059886,-0.00006364,0.00
 034618,0.00002302,0.00089212,0.00093600,-0.00466115,-0.00003936,-0.000
 13211,0.00003691,-0.05011435,0.01197119,0.01175775,0.00007219,0.000035
 43,0.00000346,-0.00000995,0.00007723,0.00019147,-0.00012423,-0.0002310
 5,-0.00018909,-0.00006207,-0.00002961,0.00004593,0.00010066,0.00073619
 ,0.00095582,0.00000413,0.00002924,-0.00003745,0.00000983,-0.00001701,0
 .00000221,-0.00001483,0.00001821,-0.00000553,0.00003539,0.00001796,-0.
 00000403,0.00031672,-0.00016388,-0.00011618,0.00001398,0.00009878,0.00
 017893,0.00029588,-0.00297326,-0.00386242,0.05371298,0.00076333,-0.000
 18342,0.00084648,0.00004857,-0.00007922,-0.00000315,-0.00011361,-0.000
 09990,0.00018068,-0.00007014,-0.00009092,0.00019229,-0.01093420,-0.019
 94819,-0.00853800,0.00020137,0.00000830,0.00015351,-0.00004573,0.00012
 538,0.00009792,0.00026456,0.00015891,-0.00034436,0.00001995,0.00014700
 ,-0.00043852,-0.00024867,0.00055083,0.00035311,0.00013106,0.00147035,-
 0.00575753,-0.00013908,-0.00000232,0.00004611,0.00928071,-0.16984039,-
 0.12217050,-0.00000946,-0.00004799,0.00002128,-0.00000177,0.00004805,0
 .00024113,-0.00011838,0.00022352,0.00015219,-0.00012146,-0.00008968,0.
 00005096,-0.00014818,-0.00010123,0.00161248,0.00004100,-0.00001685,0.0
 0002427,0.00000226,0.00001594,-0.00000416,-0.00000718,0.00004031,0.000
 00249,0.00003762,0.00001726,-0.00001744,0.00041147,-0.00003592,-0.0001
 2331,-0.00000850,-0.00018160,-0.00011401,0.00009646,0.01142127,0.00922
 872,-0.00055189,0.18598958,0.00003925,-0.00090122,-0.00013828,-0.00000
 313,-0.00008295,-0.00000319,-0.00011469,-0.00003986,0.00002181,-0.0001
 9891,0.00006147,0.00000534,-0.00111192,0.00588809,0.00728516,0.0000997
 9,0.00005443,0.00005884,0.00000659,0.00006740,-0.00000433,0.00017738,0
 .00017115,-0.00019187,0.00009989,0.00019377,-0.00001666,0.00016663,0.0
 0005569,0.00023041,-0.00019406,0.00322477,0.00307001,-0.00010123,-0.00
 007973,-0.00002080,0.00744250,-0.12576949,-0.18098220,-0.00000225,-0.0
 0000746,0.00001355,0.00002868,-0.00003651,0.00001192,-0.00000297,0.000
 08044,-0.00001967,-0.00004627,-0.00004283,-0.00001868,-0.00015353,-0.0
 0151360,0.00050113,0.00001787,-0.00000115,0.00001678,0.00001629,0.0000
 0479,-0.00000180,0.00000586,0.00002388,-0.00000391,0.00002278,0.000006
 88,-0.00000008,0.00012599,-0.00008314,-0.00004251,-0.00005489,-0.00005
 672,-0.00004235,0.00248195,-0.02020930,-0.01661420,-0.00819083,0.13676
 141,0.18561445,0.00286165,-0.00022638,-0.00013260,0.00014420,-0.000050
 45,-0.00000374,0.00005989,-0.00020620,-0.00003818,-0.00013801,-0.00055
 020,0.00032347,-0.02483227,-0.00077927,0.00368665,-0.00031064,-0.00005
 419,0.00010237,-0.00027437,0.00004574,-0.00024519,-0.00003254,0.000218
 20,0.00000162,0.00024500,-0.00039833,0.00073994,-0.00015218,0.00028765
 ,0.00001191,-0.00268620,0.00366802,-0.00510182,0.00022480,-0.00003565,
 -0.00002131,-0.23338209,0.11173682,-0.00730542,0.00009639,0.00008033,0
 .00000001,-0.00000024,0.00007155,0.00006104,-0.00009817,-0.00074568,-0
 .00022601,-0.00009965,-0.00013925,0.00004340,0.00007541,-0.00021433,0.
 00045640,-0.00008476,-0.00000439,-0.00006978,0.00000762,-0.00001586,0.
 00000117,-0.00003769,0.00003725,-0.00000499,0.00003288,0.00008651,0.00
 003902,0.00076316,0.00017019,0.00006719,0.00022278,-0.00015690,-0.0001
 6439,-0.00096609,0.00219392,0.00003709,0.00164702,0.00121987,-0.000556
 76,0.25671409,0.00020201,-0.00199761,0.00106186,0.00005337,0.00001621,
 0.00001842,0.00005638,-0.00005154,-0.00000319,-0.00008946,-0.00028587,
 0.00027990,-0.02901505,0.01003368,0.00090438,-0.00043544,0.00015638,-0
 .00046385,-0.00015378,-0.00000881,-0.00026785,0.00001548,0.00010873,-0
 .00001147,-0.00061747,-0.00056984,0.00103199,-0.00007326,0.00009193,-0
 .00005265,-0.00088354,0.00210960,-0.00145609,0.00002531,-0.00031104,0.
 00009738,0.11963483,-0.12011956,0.00429026,0.00010058,0.00004183,-0.00
 002733,0.00001602,0.00003426,0.00001434,-0.00057479,-0.00103903,-0.000
 66264,-0.00001166,-0.00004829,0.00000935,-0.00002012,-0.00039517,0.000
 33338,-0.00005652,0.00003323,-0.00004495,0.00000326,0.00000575,-0.0000
 1002,-0.00001289,-0.00000050,-0.00001187,0.00001072,0.00003363,0.00001
 456,0.00048421,0.00003185,0.00000631,0.00022842,0.00031218,0.00038328,
 0.00921491,-0.00532792,-0.00143992,0.01813745,-0.00949905,0.00222977,-
 0.11623897,0.12664495,-0.00020368,0.00047170,-0.00098710,-0.00007978,-
 0.00009433,-0.00009890,-0.00002996,0.00002218,-0.00005019,-0.00018670,
 0.00007697,-0.00007214,0.00505944,-0.00019816,0.00142719,0.00006691,-0
 .00061153,-0.00002568,0.00007244,0.00001788,-0.00012653,0.00003448,-0.
 00005532,0.00007805,-0.00011023,0.00085883,0.00084129,0.00000738,0.000
 22561,0.00003040,0.00213427,-0.00138815,0.00083384,0.00033324,0.000362
 16,-0.00014876,-0.01006866,0.00477428,-0.05149783,0.00002525,0.0000400
 9,-0.00001358,-0.00002040,-0.00001911,-0.00003632,-0.00010564,-0.00040
 356,-0.00003886,0.00001720,-0.00000308,-0.00000882,-0.00005991,-0.0002
 3314,0.00000437,-0.00008956,-0.00003307,-0.00000051,0.00000117,-0.0000
 8649,0.00001079,0.00001620,-0.00001744,0.00000741,-0.00000404,0.000001
 10,0.00001327,-0.00007976,-0.00001783,-0.00002677,-0.00047022,0.000556
 98,-0.00068592,-0.02457861,0.01443080,0.00115427,0.02002024,-0.0124540
 6,0.00127111,0.00829891,-0.00622333,0.04814591\\-0.00000555,-0.0000061
 7,-0.00000288,-0.00000436,-0.00001513,-0.00001267,-0.00003867,0.000004
 60,0.00000012,0.00000549,0.00000226,0.00000106,-0.00000896,-0.00000015
 ,0.00000996,-0.00000852,0.00000322,-0.00001449,0.00000309,0.00002297,0
 .00002217,0.00000947,0.00001063,-0.00001225,-0.00000215,-0.00000082,-0
 .00000006,-0.00001758,-0.00001196,-0.00000235,0.00001958,-0.00000183,-
 0.00000571,0.00000524,-0.00000059,-0.00000691,0.00000938,0.00000451,-0
 .00000499,0.00000080,-0.00000215,-0.00000762,-0.00000171,0.00000137,0.
 00000726,-0.00000110,-0.00000090,-0.00000177,0.00000510,0.00000559,0.0
 0000567,0.00000366,-0.00000143,0.00000110,-0.00000383,-0.00000259,-0.0
 0000075,0.00000123,-0.00000244,0.00000080,-0.00000138,0.00000669,0.000
 00095,0.00001238,-0.00000482,0.00001124,0.00000369,0.00000563,0.000009
 05,0.00001065,-0.00001299,0.00000123,0.00000129,-0.00000122,0.00000055
 ,0.00000238,0.00000033,0.00000042,0.00000037,-0.00000260,0.00000087\\\
 @


 If your ship doesn't come in, swim out to it!
                          -- Jonathan Winters
 Job cpu time:       0 days  6 hours 14 minutes  6.0 seconds.
 Elapsed time:       0 days  0 hours 23 minutes 29.1 seconds.
 File lengths (MBytes):  RWF=    370 Int=      0 D2E=      0 Chk=     13 Scr=      1
 Normal termination of Gaussian 16 at Sat Sep 20 13:26:11 2025.
