 Entering Gaussian System, Link 0=g16
 Input=MEBE0065.gjf
 Output=MEBE0065.log
 Initial command:
 /usr/local/g16/l1.exe "/dados_01/scratch/Gau-2513837.inp" -scrdir="/dados_01/scratch/"
 Entering Link 1 = /usr/local/g16/l1.exe PID=   2513838.
  
 Copyright (c) 1988-2017, Gaussian, Inc.  All Rights Reserved.
  
 This is part of the Gaussian(R) 16 program.  It is based on
 the Gaussian(R) 09 system (copyright 2009, Gaussian, Inc.),
 the Gaussian(R) 03 system (copyright 2003, Gaussian, Inc.),
 the Gaussian(R) 98 system (copyright 1998, Gaussian, Inc.),
 the Gaussian(R) 94 system (copyright 1995, Gaussian, Inc.),
 the Gaussian 92(TM) system (copyright 1992, Gaussian, Inc.),
 the Gaussian 90(TM) system (copyright 1990, Gaussian, Inc.),
 the Gaussian 88(TM) system (copyright 1988, Gaussian, Inc.),
 the Gaussian 86(TM) system (copyright 1986, Carnegie Mellon
 University), and the Gaussian 82(TM) system (copyright 1983,
 Carnegie Mellon University). Gaussian is a federally registered
 trademark of Gaussian, Inc.
  
 This software contains proprietary and confidential information,
 including trade secrets, belonging to Gaussian, Inc.
  
 This software is provided under written license and may be
 used, copied, transmitted, or stored only in accord with that
 written license.
  
 The following legend is applicable only to US Government
 contracts under FAR:
  
                    RESTRICTED RIGHTS LEGEND
  
 Use, reproduction and disclosure by the US Government is
 subject to restrictions as set forth in subparagraphs (a)
 and (c) of the Commercial Computer Software - Restricted
 Rights clause in FAR 52.227-19.
  
 Gaussian, Inc.
 340 Quinnipiac St., Bldg. 40, Wallingford CT 06492
  
  
 ---------------------------------------------------------------
 Warning -- This program may not be used in any manner that
 competes with the business of Gaussian, Inc. or will provide
 assistance to any competitor of Gaussian, Inc.  The licensee
 of this program is prohibited from giving any competitor of
 Gaussian, Inc. access to this program.  By using this program,
 the user acknowledges that Gaussian, Inc. is engaged in the
 business of creating and licensing software in the field of
 computational chemistry and represents and warrants to the
 licensee that it is not a competitor of Gaussian, Inc. and that
 it will not use this program in any manner prohibited above.
 ---------------------------------------------------------------
  

 Cite this work as:
 Gaussian 16, Revision B.01,
 M. J. Frisch, G. W. Trucks, H. B. Schlegel, G. E. Scuseria, 
 M. A. Robb, J. R. Cheeseman, G. Scalmani, V. Barone, 
 G. A. Petersson, H. Nakatsuji, X. Li, M. Caricato, A. V. Marenich, 
 J. Bloino, B. G. Janesko, R. Gomperts, B. Mennucci, H. P. Hratchian, 
 J. V. Ortiz, A. F. Izmaylov, J. L. Sonnenberg, D. Williams-Young, 
 F. Ding, F. Lipparini, F. Egidi, J. Goings, B. Peng, A. Petrone, 
 T. Henderson, D. Ranasinghe, V. G. Zakrzewski, J. Gao, N. Rega, 
 G. Zheng, W. Liang, M. Hada, M. Ehara, K. Toyota, R. Fukuda, 
 J. Hasegawa, M. Ishida, T. Nakajima, Y. Honda, O. Kitao, H. Nakai, 
 T. Vreven, K. Throssell, J. A. Montgomery, Jr., J. E. Peralta, 
 F. Ogliaro, M. J. Bearpark, J. J. Heyd, E. N. Brothers, K. N. Kudin, 
 V. N. Staroverov, T. A. Keith, R. Kobayashi, J. Normand, 
 K. Raghavachari, A. P. Rendell, J. C. Burant, S. S. Iyengar, 
 J. Tomasi, M. Cossi, J. M. Millam, M. Klene, C. Adamo, R. Cammi, 
 J. W. Ochterski, R. L. Martin, K. Morokuma, O. Farkas, 
 J. B. Foresman, and D. J. Fox, Gaussian, Inc., Wallingford CT, 2016.
 
 ******************************************
 Gaussian 16:  ES64L-G16RevB.01 20-Dec-2017
                 7-Oct-2025 
 ******************************************
 %nprocs=16
 Will use up to   16 processors via shared memory.
 %mem=40GB
 %chk=MEBE0065.chk
 ----------------------------------------------------------------------
 # opt freq=noraman M08HX/6-311++G** scf=xqc Empiricaldispersion=pfd In
 t(Grid=ultraFine)
 ----------------------------------------------------------------------
 1/18=20,19=15,26=4,38=1/1,3;
 2/9=110,12=2,17=6,18=5,40=1/2;
 3/5=4,6=6,7=1111,11=2,25=1,30=1,71=1,74=-74,75=-5,124=11/1,2,3;
 4//1;
 5/5=2,8=3,13=1,38=5/2,8;
 6/7=2,8=2,9=2,10=2,28=1/1;
 7//1,2,3,16;
 1/18=20,19=15,26=4/3(2);
 2/9=110/2;
 99//99;
 2/9=110/2;
 3/5=4,6=6,7=1111,11=2,25=1,30=1,71=1,74=-74,75=-5,124=11/1,2,3;
 4/5=5,16=3,69=1/1;
 5/5=2,8=3,13=1,38=5/2,8;
 7//1,2,3,16;
 1/18=20,19=15,26=4/3(-5);
 2/9=110/2;
 6/7=2,8=2,9=2,10=2,19=2,28=1/1;
 99/9=1/99;
 --------
 MEBE0065
 --------
 Symbolic Z-matrix:
 Charge =  0 Multiplicity = 1
 O                     2.0538   -0.7845    0.0002 
 O                     1.8766    1.5107   -0.0008 
 C                    -0.084     0.1539   -0.0002 
 C                    -0.968     1.233     0.0004 
 C                    -0.5766   -1.1512   -0.0005 
 C                    -2.3444    1.0072    0.0007 
 C                    -1.9532   -1.377    -0.0004 
 C                    -2.837    -0.2978    0.0002 
 C                     1.3509    0.3895   -0.0007 
 C                     3.4819   -0.6837    0.001 
 H                    -0.6053    2.2575    0.0007 
 H                     0.0733   -2.0217   -0.0011 
 H                    -3.0329    1.8472    0.0011 
 H                    -2.3376   -2.3929   -0.0007 
 H                    -3.9087   -0.4737    0.0003 
 H                     3.8225   -0.1632    0.9009 
 H                     3.8236   -0.1638   -0.8989 
 H                     3.8947   -1.6958    0.0016 
 

 GradGradGradGradGradGradGradGradGradGradGradGradGradGradGradGradGradGrad
 Berny optimization.
 Initialization pass.
                           ----------------------------
                           !    Initial Parameters    !
                           ! (Angstroms and Degrees)  !
 --------------------------                            --------------------------
 ! Name  Definition              Value          Derivative Info.                !
 --------------------------------------------------------------------------------
 ! R1    R(1,9)                  1.3683         estimate D2E/DX2                !
 ! R2    R(1,10)                 1.4317         estimate D2E/DX2                !
 ! R3    R(2,9)                  1.2383         estimate D2E/DX2                !
 ! R4    R(3,4)                  1.395          estimate D2E/DX2                !
 ! R5    R(3,5)                  1.395          estimate D2E/DX2                !
 ! R6    R(3,9)                  1.4541         estimate D2E/DX2                !
 ! R7    R(4,6)                  1.3948         estimate D2E/DX2                !
 ! R8    R(4,11)                 1.0868         estimate D2E/DX2                !
 ! R9    R(5,7)                  1.395          estimate D2E/DX2                !
 ! R10   R(5,12)                 1.0863         estimate D2E/DX2                !
 ! R11   R(6,8)                  1.3949         estimate D2E/DX2                !
 ! R12   R(6,13)                 1.0861         estimate D2E/DX2                !
 ! R13   R(7,8)                  1.3949         estimate D2E/DX2                !
 ! R14   R(7,14)                 1.0862         estimate D2E/DX2                !
 ! R15   R(8,15)                 1.086          estimate D2E/DX2                !
 ! R16   R(10,16)                1.094          estimate D2E/DX2                !
 ! R17   R(10,17)                1.094          estimate D2E/DX2                !
 ! R18   R(10,18)                1.093          estimate D2E/DX2                !
 ! A1    A(9,1,10)             116.8725         estimate D2E/DX2                !
 ! A2    A(4,3,5)              119.997          estimate D2E/DX2                !
 ! A3    A(4,3,9)              120.0            estimate D2E/DX2                !
 ! A4    A(5,3,9)              120.003          estimate D2E/DX2                !
 ! A5    A(3,4,6)              120.0079         estimate D2E/DX2                !
 ! A6    A(3,4,11)             121.1803         estimate D2E/DX2                !
 ! A7    A(6,4,11)             118.8118         estimate D2E/DX2                !
 ! A8    A(3,5,7)              119.9938         estimate D2E/DX2                !
 ! A9    A(3,5,12)             122.577          estimate D2E/DX2                !
 ! A10   A(7,5,12)             117.4292         estimate D2E/DX2                !
 ! A11   A(4,6,8)              119.9965         estimate D2E/DX2                !
 ! A12   A(4,6,13)             120.0231         estimate D2E/DX2                !
 ! A13   A(8,6,13)             119.9804         estimate D2E/DX2                !
 ! A14   A(5,7,8)              120.0003         estimate D2E/DX2                !
 ! A15   A(5,7,14)             120.0409         estimate D2E/DX2                !
 ! A16   A(8,7,14)             119.9588         estimate D2E/DX2                !
 ! A17   A(6,8,7)              120.0045         estimate D2E/DX2                !
 ! A18   A(6,8,15)             120.001          estimate D2E/DX2                !
 ! A19   A(7,8,15)             119.9945         estimate D2E/DX2                !
 ! A20   A(1,9,2)              123.9695         estimate D2E/DX2                !
 ! A21   A(1,9,3)              111.5855         estimate D2E/DX2                !
 ! A22   A(2,9,3)              124.4449         estimate D2E/DX2                !
 ! A23   A(1,10,16)            110.1533         estimate D2E/DX2                !
 ! A24   A(1,10,17)            110.1549         estimate D2E/DX2                !
 ! A25   A(1,10,18)            108.1514         estimate D2E/DX2                !
 ! A26   A(16,10,17)           110.6891         estimate D2E/DX2                !
 ! A27   A(16,10,18)           108.8157         estimate D2E/DX2                !
 ! A28   A(17,10,18)           108.8156         estimate D2E/DX2                !
 ! D1    D(10,1,9,2)            -0.003          estimate D2E/DX2                !
 ! D2    D(10,1,9,3)          -179.9471         estimate D2E/DX2                !
 ! D3    D(9,1,10,16)           61.1958         estimate D2E/DX2                !
 ! D4    D(9,1,10,17)          -61.1881         estimate D2E/DX2                !
 ! D5    D(9,1,10,18)         -179.9966         estimate D2E/DX2                !
 ! D6    D(5,3,4,6)              0.0            estimate D2E/DX2                !
 ! D7    D(5,3,4,11)           179.9964         estimate D2E/DX2                !
 ! D8    D(9,3,4,6)            179.9915         estimate D2E/DX2                !
 ! D9    D(9,3,4,11)            -0.0121         estimate D2E/DX2                !
 ! D10   D(4,3,5,7)              0.0095         estimate D2E/DX2                !
 ! D11   D(4,3,5,12)           179.9917         estimate D2E/DX2                !
 ! D12   D(9,3,5,7)           -179.982          estimate D2E/DX2                !
 ! D13   D(9,3,5,12)             0.0002         estimate D2E/DX2                !
 ! D14   D(4,3,9,1)            179.9346         estimate D2E/DX2                !
 ! D15   D(4,3,9,2)             -0.0092         estimate D2E/DX2                !
 ! D16   D(5,3,9,1)             -0.0739         estimate D2E/DX2                !
 ! D17   D(5,3,9,2)            179.9823         estimate D2E/DX2                !
 ! D18   D(3,4,6,8)             -0.0095         estimate D2E/DX2                !
 ! D19   D(3,4,6,13)          -179.9959         estimate D2E/DX2                !
 ! D20   D(11,4,6,8)           179.994          estimate D2E/DX2                !
 ! D21   D(11,4,6,13)            0.0076         estimate D2E/DX2                !
 ! D22   D(3,5,7,8)             -0.0095         estimate D2E/DX2                !
 ! D23   D(3,5,7,14)           179.9959         estimate D2E/DX2                !
 ! D24   D(12,5,7,8)          -179.9926         estimate D2E/DX2                !
 ! D25   D(12,5,7,14)            0.0129         estimate D2E/DX2                !
 ! D26   D(4,6,8,7)              0.0095         estimate D2E/DX2                !
 ! D27   D(4,6,8,15)          -179.9919         estimate D2E/DX2                !
 ! D28   D(13,6,8,7)           179.9959         estimate D2E/DX2                !
 ! D29   D(13,6,8,15)           -0.0054         estimate D2E/DX2                !
 ! D30   D(5,7,8,6)              0.0            estimate D2E/DX2                !
 ! D31   D(5,7,8,15)          -179.9986         estimate D2E/DX2                !
 ! D32   D(14,7,8,6)           179.9946         estimate D2E/DX2                !
 ! D33   D(14,7,8,15)           -0.0041         estimate D2E/DX2                !
 --------------------------------------------------------------------------------
 Trust Radius=3.00D-01 FncErr=1.00D-07 GrdErr=1.00D-06 EigMax=2.50D+02 EigMin=1.00D-04
 Number of steps in this run=     89 maximum allowed number of steps=    108.
 GradGradGradGradGradGradGradGradGradGradGradGradGradGradGradGradGradGrad

                          Input orientation:                          
 ---------------------------------------------------------------------
 Center     Atomic      Atomic             Coordinates (Angstroms)
 Number     Number       Type             X           Y           Z
 ---------------------------------------------------------------------
      1          8           0        2.053800   -0.784500    0.000200
      2          8           0        1.876600    1.510700   -0.000800
      3          6           0       -0.084000    0.153900   -0.000200
      4          6           0       -0.968000    1.233000    0.000400
      5          6           0       -0.576600   -1.151200   -0.000500
      6          6           0       -2.344400    1.007200    0.000700
      7          6           0       -1.953200   -1.377000   -0.000400
      8          6           0       -2.837000   -0.297800    0.000200
      9          6           0        1.350900    0.389500   -0.000700
     10          6           0        3.481900   -0.683700    0.001000
     11          1           0       -0.605300    2.257500    0.000700
     12          1           0        0.073300   -2.021700   -0.001100
     13          1           0       -3.032900    1.847200    0.001100
     14          1           0       -2.337600   -2.392900   -0.000700
     15          1           0       -3.908700   -0.473700    0.000300
     16          1           0        3.822500   -0.163200    0.900900
     17          1           0        3.823600   -0.163800   -0.898900
     18          1           0        3.894700   -1.695800    0.001600
 ---------------------------------------------------------------------
                    Distance matrix (angstroms):
                    1          2          3          4          5
     1  O    0.000000
     2  O    2.302030   0.000000
     3  C    2.334691   2.384294   0.000000
     4  C    3.633398   2.858123   1.394960   0.000000
     5  C    2.655838   3.619931   1.394970   2.416113   0.000000
     6  C    4.749142   4.250924   2.416098   1.394798   2.789948
     7  C    4.050569   4.796476   2.416105   2.789753   1.394996
     8  C    4.914957   5.048633   2.789810   2.415887   2.416133
     9  C    1.368337   1.238325   1.454113   2.467548   2.467593
    10  C    1.431653   2.718894   3.662952   4.845137   4.085337
    11  H    4.040368   2.591822   2.167230   1.086808   3.408821
    12  H    2.335176   3.966074   2.181279   3.417218   1.086343
    13  H    5.727160   4.921019   3.400482   2.154311   3.876057
    14  H    4.676681   5.744352   3.400721   3.875946   2.154748
    15  H    5.970595   6.116170   3.875850   3.400080   3.400279
    16  H    2.079801   2.720575   4.021601   5.070421   4.597907
    17  H    2.079866   2.720541   4.022180   5.071412   4.598243
    18  H    2.054114   3.788717   4.387647   5.676594   4.504344
                    6          7          8          9         10
     6  C    0.000000
     7  C    2.416081   0.000000
     8  C    1.394876   1.394911   0.000000
     9  C    3.746571   3.746678   4.243924   0.000000
    10  C    6.066705   5.479140   6.330673   2.385985   0.000000
    11  H    2.141896   3.876393   3.392645   2.704837   5.035460
    12  H    3.875501   2.126580   3.382555   2.728763   3.661803
    13  H    1.086109   3.400179   2.153927   4.619805   6.989140
    14  H    3.400107   1.086193   2.153798   4.620258   6.065307
    15  H    2.154089   2.154050   1.086039   5.329963   7.393583
    16  H    6.341203   5.970290   6.721482   2.688339   1.093960
    17  H    6.342298   5.970810   6.722346   2.688336   1.094018
    18  H    6.799454   5.856584   6.875332   3.289286   1.093046
                   11         12         13         14         15
    11  H    0.000000
    12  H    4.332673   0.000000
    13  H    2.462029   4.961539   0.000000
    14  H    4.962568   2.439309   4.296731   0.000000
    15  H    4.286246   4.272310   2.480646   2.480259   0.000000
    16  H    5.125969   4.280669   7.200546   6.612963   7.789669
    17  H    5.127098   4.280489   7.201785   6.613323   7.790575
    18  H    5.989873   3.835273   7.781034   6.271166   7.898518
                   16         17         18
    16  H    0.000000
    17  H    1.799800   0.000000
    18  H    1.778431   1.778477   0.000000
 Stoichiometry    C8H8O2
 Framework group  C1[X(C8H8O2)]
 Deg. of freedom    48
 Full point group                 C1      NOp   1
 Largest Abelian subgroup         C1      NOp   1
 Largest concise Abelian subgroup C1      NOp   1
                         Standard orientation:                         
 ---------------------------------------------------------------------
 Center     Atomic      Atomic             Coordinates (Angstroms)
 Number     Number       Type             X           Y           Z
 ---------------------------------------------------------------------
      1          8           0        1.935385   -0.727522    0.000171
      2          8           0        1.712772    1.563719   -0.000829
      3          6           0       -0.220577    0.168363   -0.000229
      4          6           0       -1.125771    1.229747    0.000371
      5          6           0       -0.687238   -1.146236   -0.000529
      6          6           0       -2.497430    0.976736    0.000671
      7          6           0       -2.059097   -1.399250   -0.000429
      8          6           0       -2.964093   -0.337762    0.000171
      9          6           0        1.209376    0.432329   -0.000729
     10          6           0        3.361209   -0.598464    0.000971
     11          1           0       -0.783429    2.261228    0.000671
     12          1           0       -0.020228   -2.003696   -0.001129
     13          1           0       -3.202429    1.802938    0.001071
     14          1           0       -2.423305   -2.422563   -0.000729
     15          1           0       -4.032100   -0.534849    0.000271
     16          1           0        3.691436   -0.071321    0.900871
     17          1           0        3.692548   -0.071899   -0.898929
     18          1           0        3.793969   -1.602191    0.001571
 ---------------------------------------------------------------------
 Rotational constants (GHZ):           3.4272582           0.8572660           0.6887918
 Standard basis: 6-311++G(d,p) (5D, 7F)
 There are   286 symmetry adapted cartesian basis functions of A   symmetry.
 There are   276 symmetry adapted basis functions of A   symmetry.
   276 basis functions,   432 primitive gaussians,   286 cartesian basis functions
    36 alpha electrons       36 beta electrons
       nuclear repulsion energy       489.3735544821 Hartrees.
 NAtoms=   18 NActive=   18 NUniq=   18 SFac= 1.00D+00 NAtFMM=   60 NAOKFM=F Big=F
 Integral buffers will be    131072 words long.
 Raffenetti 2 integral format.
 Two-electron integral symmetry is turned on.
 R6APFD:  NTU= -4 IXU= 1 FactS= 1.050
 Nuclear repulsion after empirical dispersion term =      489.3634632907 Hartrees.
 One-electron integrals computed using PRISM.
 NBasis=   276 RedAO= T EigKep=  1.01D-06  NBF=   276
 NBsUse=   276 1.00D-06 EigRej= -1.00D+00 NBFU=   276
 ExpMin= 3.60D-02 ExpMax= 8.59D+03 ExpMxC= 1.30D+03 IAcc=3 IRadAn=         5 AccDes= 0.00D+00
 Harris functional with IExCor= 1009 and IRadAn=       5 diagonalized for initial guess.
 HarFok:  IExCor= 1009 AccDes= 0.00D+00 IRadAn=         5 IDoV= 1 UseB2=F ITyADJ=14
 ICtDFT=  3500011 ScaDFX=  1.000000  1.000000  1.000000  1.000000
 FoFCou: FMM=F IPFlag=           0 FMFlag=      100000 FMFlg1=           0
         NFxFlg=           0 DoJE=T BraDBF=F KetDBF=T FulRan=T
         wScrn=  0.000000 ICntrl=       500 IOpCl=  0 I1Cent=   200000004 NGrid=           0
         NMat0=    1 NMatS0=      1 NMatT0=    0 NMatD0=    1 NMtDS0=    0 NMtDT0=    0
 Petite list used in FoFCou.
 Requested convergence on RMS density matrix=1.00D-08 within  32 cycles.
 Requested convergence on MAX density matrix=1.00D-06.
 Requested convergence on             energy=1.00D-06.
 No special actions if energy rises.
 SCF Done:  E(RM08HX) =  -460.107612373     A.U. after   16 cycles
            NFock= 16  Conv=0.28D-08     -V/T= 2.0047
 QCSCF skips out because SCF is already converged.

 **********************************************************************

            Population analysis using the SCF Density.

 **********************************************************************

 Orbital symmetries:
       Occupied  (A) (A) (A) (A) (A) (A) (A) (A) (A) (A) (A) (A)
                 (A) (A) (A) (A) (A) (A) (A) (A) (A) (A) (A) (A)
                 (A) (A) (A) (A) (A) (A) (A) (A) (A) (A) (A) (A)
       Virtual   (A) (A) (A) (A) (A) (A) (A) (A) (A) (A) (A) (A)
                 (A) (A) (A) (A) (A) (A) (A) (A) (A) (A) (A) (A)
                 (A) (A) (A) (A) (A) (A) (A) (A) (A) (A) (A) (A)
                 (A) (A) (A) (A) (A) (A) (A) (A) (A) (A) (A) (A)
                 (A) (A) (A) (A) (A) (A) (A) (A) (A) (A) (A) (A)
                 (A) (A) (A) (A) (A) (A) (A) (A) (A) (A) (A) (A)
                 (A) (A) (A) (A) (A) (A) (A) (A) (A) (A) (A) (A)
                 (A) (A) (A) (A) (A) (A) (A) (A) (A) (A) (A) (A)
                 (A) (A) (A) (A) (A) (A) (A) (A) (A) (A) (A) (A)
                 (A) (A) (A) (A) (A) (A) (A) (A) (A) (A) (A) (A)
                 (A) (A) (A) (A) (A) (A) (A) (A) (A) (A) (A) (A)
                 (A) (A) (A) (A) (A) (A) (A) (A) (A) (A) (A) (A)
                 (A) (A) (A) (A) (A) (A) (A) (A) (A) (A) (A) (A)
                 (A) (A) (A) (A) (A) (A) (A) (A) (A) (A) (A) (A)
                 (A) (A) (A) (A) (A) (A) (A) (A) (A) (A) (A) (A)
                 (A) (A) (A) (A) (A) (A) (A) (A) (A) (A) (A) (A)
                 (A) (A) (A) (A) (A) (A) (A) (A) (A) (A) (A) (A)
                 (A) (A) (A) (A) (A) (A) (A) (A) (A) (A) (A) (A)
                 (A) (A) (A) (A) (A) (A) (A) (A) (A) (A) (A) (A)
                 (A) (A) (A) (A) (A) (A) (A) (A) (A) (A) (A) (A)
 The electronic state is 1-A.
 Alpha  occ. eigenvalues --  -19.66266 -19.60408 -10.67463 -10.58668 -10.55883
 Alpha  occ. eigenvalues --  -10.55266 -10.55229 -10.55198 -10.54859 -10.54819
 Alpha  occ. eigenvalues --   -1.22794  -1.13205  -0.98807  -0.89288  -0.86488
 Alpha  occ. eigenvalues --   -0.82595  -0.73397  -0.70679  -0.65975  -0.62889
 Alpha  occ. eigenvalues --   -0.57661  -0.56952  -0.56562  -0.53425  -0.52622
 Alpha  occ. eigenvalues --   -0.50552  -0.49428  -0.48610  -0.44376  -0.43877
 Alpha  occ. eigenvalues --   -0.43281  -0.41811  -0.38027  -0.36316  -0.32642
 Alpha  occ. eigenvalues --   -0.32436
 Alpha virt. eigenvalues --   -0.03795  -0.02814  -0.01922  -0.00940  -0.00229
 Alpha virt. eigenvalues --    0.00128   0.00942   0.01056   0.02101   0.03105
 Alpha virt. eigenvalues --    0.03260   0.04616   0.05401   0.05566   0.06500
 Alpha virt. eigenvalues --    0.06999   0.07104   0.07953   0.08577   0.10188
 Alpha virt. eigenvalues --    0.10913   0.11120   0.11423   0.11763   0.11846
 Alpha virt. eigenvalues --    0.12642   0.12787   0.13279   0.13440   0.13624
 Alpha virt. eigenvalues --    0.14142   0.14403   0.14453   0.16180   0.17281
 Alpha virt. eigenvalues --    0.18076   0.18568   0.19528   0.19752   0.20262
 Alpha virt. eigenvalues --    0.20867   0.22292   0.22745   0.22811   0.24314
 Alpha virt. eigenvalues --    0.25171   0.25813   0.26977   0.27504   0.28494
 Alpha virt. eigenvalues --    0.29012   0.29861   0.30166   0.30535   0.31636
 Alpha virt. eigenvalues --    0.32286   0.33466   0.33846   0.35350   0.36478
 Alpha virt. eigenvalues --    0.36806   0.37548   0.38273   0.41058   0.43082
 Alpha virt. eigenvalues --    0.44497   0.45618   0.47840   0.51238   0.51985
 Alpha virt. eigenvalues --    0.55268   0.55736   0.56665   0.57519   0.58248
 Alpha virt. eigenvalues --    0.58529   0.60032   0.60676   0.62561   0.63164
 Alpha virt. eigenvalues --    0.63782   0.64621   0.66263   0.66670   0.67847
 Alpha virt. eigenvalues --    0.68159   0.70763   0.71553   0.73150   0.75059
 Alpha virt. eigenvalues --    0.75750   0.77385   0.78465   0.81428   0.82122
 Alpha virt. eigenvalues --    0.84946   0.86117   0.87373   0.88489   0.90265
 Alpha virt. eigenvalues --    0.92034   0.93078   0.93577   0.95444   0.99363
 Alpha virt. eigenvalues --    1.01313   1.01976   1.04467   1.05327   1.05808
 Alpha virt. eigenvalues --    1.07536   1.08044   1.11083   1.11700   1.13461
 Alpha virt. eigenvalues --    1.14569   1.18423   1.18938   1.22928   1.24863
 Alpha virt. eigenvalues --    1.28882   1.33564   1.34751   1.40485   1.42067
 Alpha virt. eigenvalues --    1.44467   1.46479   1.52895   1.53944   1.54193
 Alpha virt. eigenvalues --    1.55853   1.56803   1.56884   1.57999   1.59268
 Alpha virt. eigenvalues --    1.60344   1.64296   1.66833   1.67636   1.71195
 Alpha virt. eigenvalues --    1.72540   1.73601   1.74218   1.74572   1.77726
 Alpha virt. eigenvalues --    1.79218   1.80266   1.85099   1.86057   1.87312
 Alpha virt. eigenvalues --    1.93810   1.96956   1.97170   1.97236   1.97909
 Alpha virt. eigenvalues --    1.98933   1.99972   2.04041   2.05545   2.09392
 Alpha virt. eigenvalues --    2.09427   2.11083   2.14365   2.15958   2.22686
 Alpha virt. eigenvalues --    2.27734   2.34276   2.38586   2.43317   2.43918
 Alpha virt. eigenvalues --    2.45931   2.46528   2.46971   2.47552   2.53518
 Alpha virt. eigenvalues --    2.56459   2.61780   2.63886   2.64246   2.67157
 Alpha virt. eigenvalues --    2.69741   2.69905   2.71950   2.72791   2.72942
 Alpha virt. eigenvalues --    2.74519   2.76512   2.85379   2.86692   2.87614
 Alpha virt. eigenvalues --    2.88507   2.89951   2.93699   2.95374   2.97176
 Alpha virt. eigenvalues --    2.98576   3.00870   3.07609   3.10357   3.13977
 Alpha virt. eigenvalues --    3.16007   3.26854   3.27950   3.29461   3.37575
 Alpha virt. eigenvalues --    3.42373   3.43783   3.45048   3.53635   3.56765
 Alpha virt. eigenvalues --    3.57874   3.65387   3.68100   3.79134   3.81404
 Alpha virt. eigenvalues --    3.86330   4.02394   4.07334   4.14763   4.18046
 Alpha virt. eigenvalues --    4.20526   4.24623   4.44525   4.91385   5.12261
 Alpha virt. eigenvalues --    5.15529   5.35049   5.50267   5.77041   5.94474
 Alpha virt. eigenvalues --   23.66306  23.89707  23.98165  24.00967  24.01836
 Alpha virt. eigenvalues --   24.12615  24.14103  24.23711  49.91247  50.03414
          Condensed to atoms (all electrons):
               1          2          3          4          5          6
     1  O    8.406166  -0.177049  -0.890092  -0.195541  -0.074743   0.078408
     2  O   -0.177049   8.023931   0.307642  -0.094374  -0.161291   0.078278
     3  C   -0.890092   0.307642  27.133292  -4.802086  -7.657185   3.713333
     4  C   -0.195541  -0.094374  -4.802086  19.655758  -0.950459  -7.040272
     5  C   -0.074743  -0.161291  -7.657185  -0.950459  26.656125  -2.438026
     6  C    0.078408   0.078278   3.713333  -7.040272  -2.438026  12.054267
     7  C    0.097513   0.148484   5.231537  -1.478216 -13.221045   3.866282
     8  C   -0.039622  -0.039079  -3.006019   3.029960   4.455162  -3.969038
     9  C    0.752383   0.222656 -14.594016  -1.907144  -0.335045  -0.435796
    10  C    0.203653  -0.038598  -0.556439  -0.000660  -0.138667  -0.005017
    11  H   -0.008487  -0.012005  -0.057680   0.594749   0.052665  -0.175967
    12  H   -0.023060  -0.012433  -0.232185  -0.009384   1.061554  -0.031208
    13  H    0.001385   0.001927   0.034574  -0.085564  -0.006204   0.383961
    14  H    0.000933   0.001542   0.111750   0.041235  -0.319344   0.044878
    15  H   -0.000781  -0.000303  -0.000573   0.025692   0.099746  -0.074211
    16  H   -0.025803  -0.016767  -0.042571  -0.013706   0.016720   0.002523
    17  H   -0.025687  -0.016874  -0.043764  -0.013589   0.016615   0.002457
    18  H   -0.062125   0.003590  -0.004188   0.013786  -0.028239  -0.003931
               7          8          9         10         11         12
     1  O    0.097513  -0.039622   0.752383   0.203653  -0.008487  -0.023060
     2  O    0.148484  -0.039079   0.222656  -0.038598  -0.012005  -0.012433
     3  C    5.231537  -3.006019 -14.594016  -0.556439  -0.057680  -0.232185
     4  C   -1.478216   3.029960  -1.907144  -0.000660   0.594749  -0.009384
     5  C  -13.221045   4.455162  -0.335045  -0.138667   0.052665   1.061554
     6  C    3.866282  -3.969038  -0.435796  -0.005017  -0.175967  -0.031208
     7  C   16.731927  -4.743022  -0.670279   0.008108  -0.039012  -0.513558
     8  C   -4.743022  10.414250   0.202635  -0.023987   0.061993   0.092328
     9  C   -0.670279   0.202635  22.886436   0.402225  -0.091637  -0.028134
    10  C    0.008108  -0.023987   0.402225   5.383514  -0.004093  -0.004845
    11  H   -0.039012   0.061993  -0.091637  -0.004093   0.383647   0.001174
    12  H   -0.513558   0.092328  -0.028134  -0.004845   0.001174   0.417284
    13  H    0.044380  -0.080021   0.007064   0.000735  -0.002791   0.000549
    14  H    0.535144  -0.088413  -0.032122   0.000941   0.000548  -0.011285
    15  H   -0.124885   0.436374  -0.032222  -0.000723   0.001737   0.002786
    16  H   -0.006201  -0.000617  -0.000203   0.419899  -0.000121   0.001954
    17  H   -0.006230  -0.000614   0.000641   0.420230  -0.000121   0.001952
    18  H    0.007841   0.001385   0.070548   0.367173  -0.000041  -0.004193
              13         14         15         16         17         18
     1  O    0.001385   0.000933  -0.000781  -0.025803  -0.025687  -0.062125
     2  O    0.001927   0.001542  -0.000303  -0.016767  -0.016874   0.003590
     3  C    0.034574   0.111750  -0.000573  -0.042571  -0.043764  -0.004188
     4  C   -0.085564   0.041235   0.025692  -0.013706  -0.013589   0.013786
     5  C   -0.006204  -0.319344   0.099746   0.016720   0.016615  -0.028239
     6  C    0.383961   0.044878  -0.074211   0.002523   0.002457  -0.003931
     7  C    0.044380   0.535144  -0.124885  -0.006201  -0.006230   0.007841
     8  C   -0.080021  -0.088413   0.436374  -0.000617  -0.000614   0.001385
     9  C    0.007064  -0.032122  -0.032222  -0.000203   0.000641   0.070548
    10  C    0.000735   0.000941  -0.000723   0.419899   0.420230   0.367173
    11  H   -0.002791   0.000548   0.001737  -0.000121  -0.000121  -0.000041
    12  H    0.000549  -0.011285   0.002786   0.001954   0.001952  -0.004193
    13  H    0.391432   0.000715  -0.003108   0.000080   0.000080  -0.000074
    14  H    0.000715   0.400809  -0.003670  -0.000117  -0.000118   0.000112
    15  H   -0.003108  -0.003670   0.400397  -0.000010  -0.000010  -0.000004
    16  H    0.000080  -0.000117  -0.000010   0.512653  -0.047342  -0.031379
    17  H    0.000080  -0.000118  -0.000010  -0.047342   0.512678  -0.031350
    18  H   -0.000074   0.000112  -0.000004  -0.031379  -0.031350   0.495035
 Mulliken charges:
               1
     1  O   -0.017452
     2  O   -0.219277
     3  C    1.354671
     4  C   -0.770185
     5  C   -1.028340
     6  C   -0.050923
     7  C    0.131233
     8  C   -0.703656
     9  C   -0.417989
    10  C   -0.433450
    11  H    0.295441
    12  H    0.290705
    13  H    0.310881
    14  H    0.316462
    15  H    0.273769
    16  H    0.231010
    17  H    0.231047
    18  H    0.206053
 Sum of Mulliken charges =  -0.00000
 Mulliken charges with hydrogens summed into heavy atoms:
               1
     1  O   -0.017452
     2  O   -0.219277
     3  C    1.354671
     4  C   -0.474745
     5  C   -0.737634
     6  C    0.259958
     7  C    0.447694
     8  C   -0.429886
     9  C   -0.417989
    10  C    0.234659
 Electronic spatial extent (au):  <R**2>=           1610.0646
 Charge=             -0.0000 electrons
 Dipole moment (field-independent basis, Debye):
    X=             -0.8507    Y=             -2.0896    Z=              0.0014  Tot=              2.2561
 Quadrupole moment (field-independent basis, Debye-Ang):
   XX=            -47.0198   YY=            -58.6232   ZZ=            -61.6288
   XY=             -5.7397   XZ=              0.0038   YZ=              0.0060
 Traceless Quadrupole moment (field-independent basis, Debye-Ang):
   XX=              8.7375   YY=             -2.8659   ZZ=             -5.8715
   XY=             -5.7397   XZ=              0.0038   YZ=              0.0060
 Octapole moment (field-independent basis, Debye-Ang**2):
  XXX=             24.1880  YYY=             -9.2062  ZZZ=             -0.0008  XYY=            -11.2208
  XXY=            -14.6425  XXZ=              0.0216  XZZ=             15.0802  YZZ=              1.7717
  YYZ=              0.0061  XYZ=             -0.0033
 Hexadecapole moment (field-independent basis, Debye-Ang**3):
 XXXX=          -1418.0920 YYYY=           -428.7893 ZZZZ=            -74.5263 XXXY=            -42.6180
 XXXZ=              0.0123 YYYX=            -21.1669 YYYZ=              0.0216 ZZZX=             -0.0105
 ZZZY=             -0.0107 XXYY=           -338.6103 XXZZ=           -300.1944 YYZZ=            -95.2588
 XXYZ=              0.0091 YYXZ=              0.0090 ZZXY=              1.3876
 N-N= 4.893634632907D+02 E-N=-2.051563017937D+03  KE= 4.579451106056D+02
 R6APFD:  NTU= -4 IXU= 1 FactS= 1.050
 Calling FoFJK, ICntrl=      2127 FMM=F ISym2X=0 I1Cent= 0 IOpClX= 0 NMat=1 NMatS=1 NMatT=0.
 ***** Axes restored to original set *****
 -------------------------------------------------------------------
 Center     Atomic                   Forces (Hartrees/Bohr)
 Number     Number              X              Y              Z
 -------------------------------------------------------------------
      1        8          -0.001959528    0.016403526   -0.000041879
      2        8          -0.017608739   -0.051434884   -0.000037525
      3        6          -0.015302123   -0.007078890   -0.000046757
      4        6          -0.008248440    0.002550221    0.000010223
      5        6          -0.013514563   -0.007762219   -0.000023682
      6        6           0.004295220   -0.003347049   -0.000018640
      7        6           0.001233746    0.005779331    0.000017313
      8        6           0.002753693   -0.000102102    0.000006185
      9        6           0.048944247    0.034630996    0.000146575
     10        6          -0.003501057    0.002533649   -0.000042176
     11        1           0.005411555   -0.000915285   -0.000005714
     12        1           0.004953113    0.003826046    0.000008262
     13        1          -0.000446976    0.001437478    0.000006502
     14        1          -0.000058553   -0.001486582   -0.000004068
     15        1          -0.002052060   -0.000255937    0.000000370
     16        1           0.000327551    0.003312047   -0.000961249
     17        1           0.000317692    0.003293361    0.000990187
     18        1          -0.005544776   -0.001383708   -0.000003929
 -------------------------------------------------------------------
 Cartesian Forces:  Max     0.051434884 RMS     0.011902840

 GradGradGradGradGradGradGradGradGradGradGradGradGradGradGradGradGradGrad
 Berny optimization.
 FormGI is forming the generalized inverse of G from B-inverse, IUseBI=4.
 Internal  Forces:  Max     0.054045424 RMS     0.008056451
 Search for a local minimum.
 Step number   1 out of a maximum of   89
 All quantities printed in internal units (Hartrees-Bohrs-Radians)
 Mixed Optimization -- RFO/linear search
 Second derivative matrix not updated -- first step.
 ITU=  0
     Eigenvalues ---    0.01273   0.01373   0.01617   0.01915   0.02111
     Eigenvalues ---    0.02155   0.02155   0.02156   0.02156   0.02156
     Eigenvalues ---    0.02156   0.02157   0.02157   0.10172   0.10481
     Eigenvalues ---    0.16000   0.16000   0.16000   0.16000   0.16000
     Eigenvalues ---    0.16000   0.16000   0.16000   0.22000   0.22000
     Eigenvalues ---    0.23486   0.25000   0.25000   0.25000   0.25000
     Eigenvalues ---    0.34352   0.34359   0.34463   0.35184   0.35239
     Eigenvalues ---    0.35256   0.35266   0.35274   0.37711   0.40753
     Eigenvalues ---    0.42130   0.42318   0.46463   0.46471   0.46473
     Eigenvalues ---    0.46486   0.51298   0.87704
 RFO step:  Lambda=-1.02266897D-02 EMin= 1.27306921D-02
 Linear search not attempted -- first point.
 Iteration  1 RMS(Cart)=  0.09104509 RMS(Int)=  0.00191627
 Iteration  2 RMS(Cart)=  0.00404547 RMS(Int)=  0.00000890
 Iteration  3 RMS(Cart)=  0.00000185 RMS(Int)=  0.00000882
 Iteration  4 RMS(Cart)=  0.00000000 RMS(Int)=  0.00000882
 Variable       Old X    -DE/DX   Delta X   Delta X   Delta X     New X
                                 (Linear)    (Quad)   (Total)
    R1        2.58578  -0.02605   0.00000  -0.04979  -0.04979   2.53600
    R2        2.70543  -0.00783   0.00000  -0.01875  -0.01875   2.68668
    R3        2.34010  -0.05405   0.00000  -0.06091  -0.06091   2.27918
    R4        2.63609  -0.00069   0.00000  -0.00139  -0.00139   2.63470
    R5        2.63611   0.00278   0.00000   0.00612   0.00612   2.64223
    R6        2.74788   0.02189   0.00000   0.05651   0.05651   2.80439
    R7        2.63579  -0.00374   0.00000  -0.00808  -0.00808   2.62771
    R8        2.05377   0.00094   0.00000   0.00261   0.00261   2.05637
    R9        2.63616  -0.00224   0.00000  -0.00450  -0.00450   2.63166
   R10        2.05289  -0.00010   0.00000  -0.00028  -0.00028   2.05261
   R11        2.63593  -0.00042   0.00000  -0.00114  -0.00114   2.63479
   R12        2.05245   0.00140   0.00000   0.00384   0.00384   2.05629
   R13        2.63600  -0.00089   0.00000  -0.00192  -0.00192   2.63407
   R14        2.05261   0.00141   0.00000   0.00389   0.00389   2.05650
   R15        2.05232   0.00207   0.00000   0.00569   0.00569   2.05801
   R16        2.06728   0.00089   0.00000   0.00251   0.00251   2.06979
   R17        2.06739   0.00085   0.00000   0.00240   0.00240   2.06980
   R18        2.06556  -0.00081   0.00000  -0.00229  -0.00229   2.06327
    A1        2.03981  -0.01446   0.00000  -0.05558  -0.05558   1.98423
    A2        2.09434  -0.00070   0.00000  -0.00215  -0.00215   2.09219
    A3        2.09440  -0.00984   0.00000  -0.03808  -0.03808   2.05632
    A4        2.09445   0.01054   0.00000   0.04023   0.04023   2.13467
    A5        2.09453   0.00064   0.00000   0.00241   0.00241   2.09694
    A6        2.11500  -0.00587   0.00000  -0.03382  -0.03382   2.08118
    A7        2.07366   0.00523   0.00000   0.03141   0.03141   2.10507
    A8        2.09429  -0.00070   0.00000  -0.00209  -0.00209   2.09219
    A9        2.13937  -0.00607   0.00000  -0.03669  -0.03669   2.10269
   A10        2.04953   0.00677   0.00000   0.03878   0.03878   2.08831
   A11        2.09433   0.00036   0.00000   0.00053   0.00053   2.09487
   A12        2.09480  -0.00076   0.00000  -0.00368  -0.00368   2.09112
   A13        2.09405   0.00040   0.00000   0.00314   0.00314   2.09720
   A14        2.09440   0.00039   0.00000   0.00199   0.00199   2.09639
   A15        2.09511  -0.00068   0.00000  -0.00384  -0.00384   2.09127
   A16        2.09368   0.00029   0.00000   0.00184   0.00184   2.09552
   A17        2.09447   0.00001   0.00000  -0.00069  -0.00069   2.09378
   A18        2.09441  -0.00009   0.00000  -0.00014  -0.00014   2.09428
   A19        2.09430   0.00008   0.00000   0.00083   0.00083   2.09513
   A20        2.16368  -0.01245   0.00000  -0.04785  -0.04785   2.11583
   A21        1.94753   0.01111   0.00000   0.04271   0.04271   1.99025
   A22        2.17197   0.00134   0.00000   0.00514   0.00514   2.17711
   A23        1.92254   0.00107   0.00000   0.00529   0.00531   1.92785
   A24        1.92257   0.00108   0.00000   0.00532   0.00534   1.92790
   A25        1.88760  -0.00765   0.00000  -0.04300  -0.04297   1.84463
   A26        1.93189  -0.00269   0.00000  -0.01944  -0.01943   1.91246
   A27        1.89919   0.00408   0.00000   0.02593   0.02595   1.92514
   A28        1.89919   0.00408   0.00000   0.02591   0.02594   1.92513
    D1       -0.00005   0.00003   0.00000   0.00099   0.00096   0.00091
    D2       -3.14067  -0.00005   0.00000  -0.00158  -0.00155   3.14096
    D3        1.06807  -0.00097   0.00000  -0.00869  -0.00868   1.05939
    D4       -1.06793   0.00097   0.00000   0.00867   0.00866  -1.05927
    D5       -3.14153   0.00000   0.00000  -0.00000  -0.00000  -3.14154
    D6       -0.00000   0.00000   0.00000   0.00005   0.00005   0.00005
    D7        3.14153   0.00000   0.00000   0.00006   0.00006  -3.14159
    D8        3.14144   0.00001   0.00000   0.00014   0.00014   3.14158
    D9       -0.00021   0.00001   0.00000   0.00016   0.00016  -0.00005
   D10        0.00017  -0.00001   0.00000  -0.00018  -0.00018  -0.00001
   D11        3.14145   0.00000   0.00000   0.00012   0.00011   3.14156
   D12       -3.14128  -0.00001   0.00000  -0.00027  -0.00027  -3.14155
   D13        0.00000   0.00000   0.00000   0.00003   0.00002   0.00003
   D14        3.14045   0.00003   0.00000   0.00131   0.00132  -3.14141
   D15       -0.00016  -0.00003   0.00000  -0.00124  -0.00126  -0.00142
   D16       -0.00129   0.00004   0.00000   0.00140   0.00142   0.00013
   D17        3.14128  -0.00003   0.00000  -0.00115  -0.00116   3.14012
   D18       -0.00017   0.00000   0.00000   0.00011   0.00011  -0.00006
   D19       -3.14152  -0.00000   0.00000  -0.00008  -0.00008   3.14158
   D20        3.14149   0.00000   0.00000   0.00010   0.00009   3.14158
   D21        0.00013  -0.00000   0.00000  -0.00010  -0.00010   0.00004
   D22       -0.00017   0.00001   0.00000   0.00016   0.00016  -0.00001
   D23        3.14152   0.00000   0.00000   0.00009   0.00009  -3.14157
   D24       -3.14146  -0.00000   0.00000  -0.00011  -0.00012  -3.14158
   D25        0.00022  -0.00000   0.00000  -0.00018  -0.00019   0.00004
   D26        0.00017  -0.00000   0.00000  -0.00013  -0.00013   0.00003
   D27       -3.14145  -0.00000   0.00000  -0.00010  -0.00010  -3.14155
   D28        3.14152   0.00000   0.00000   0.00006   0.00006   3.14158
   D29       -0.00009   0.00000   0.00000   0.00009   0.00009  -0.00000
   D30        0.00000   0.00000   0.00000  -0.00000  -0.00000  -0.00000
   D31       -3.14157  -0.00000   0.00000  -0.00003  -0.00003   3.14158
   D32        3.14150   0.00000   0.00000   0.00007   0.00007   3.14156
   D33       -0.00007   0.00000   0.00000   0.00003   0.00003  -0.00004
         Item               Value     Threshold  Converged?
 Maximum Force            0.054045     0.000450     NO 
 RMS     Force            0.008056     0.000300     NO 
 Maximum Displacement     0.248073     0.001800     NO 
 RMS     Displacement     0.090660     0.001200     NO 
 Predicted change in Energy=-5.262006D-03
 GradGradGradGradGradGradGradGradGradGradGradGradGradGradGradGradGradGrad

                          Input orientation:                          
 ---------------------------------------------------------------------
 Center     Atomic      Atomic             Coordinates (Angstroms)
 Number     Number       Type             X           Y           Z
 ---------------------------------------------------------------------
      1          8           0        2.105320   -0.824679    0.000810
      2          8           0        1.893065    1.386387   -0.000018
      3          6           0       -0.093780    0.063777    0.000588
      4          6           0       -0.931574    1.178210    0.000562
      5          6           0       -0.644400   -1.221446    0.000129
      6          6           0       -2.312347    1.013836    0.000138
      7          6           0       -2.027551   -1.383499   -0.000334
      8          6           0       -2.862465   -0.267321   -0.000331
      9          6           0        1.371494    0.298904    0.001038
     10          6           0        3.507710   -0.590975    0.000425
     11          1           0       -0.492045    2.173682    0.000920
     12          1           0       -0.000846   -2.096463    0.000115
     13          1           0       -2.961142    1.887404    0.000131
     14          1           0       -2.455189   -2.384207   -0.000673
     15          1           0       -3.943957   -0.395417   -0.000703
     16          1           0        3.803011   -0.032670    0.895269
     17          1           0        3.802557   -0.032525   -0.894481
     18          1           0        3.971739   -1.579297    0.000216
 ---------------------------------------------------------------------
                    Distance matrix (angstroms):
                    1          2          3          4          5
     1  O    0.000000
     2  O    2.221231   0.000000
     3  C    2.371791   2.386808   0.000000
     4  C    3.637896   2.832300   1.394224   0.000000
     5  C    2.778198   3.638615   1.398206   2.416779   0.000000
     6  C    4.784968   4.221882   2.413432   1.390523   2.789003
     7  C    4.170480   4.800365   2.415384   2.786310   1.392613
     8  C    4.998954   5.034860   2.788412   2.412033   2.414575
     9  C    1.341991   1.206092   1.484019   2.465218   2.524934
    10  C    1.421730   2.552849   3.660523   4.778834   4.199703
    11  H    3.966923   2.511690   2.147165   1.088187   3.398545
    12  H    2.460360   3.964485   2.162238   3.404370   1.086193
    13  H    5.746689   4.879995   3.398144   2.149908   3.877144
    14  H    4.819790   5.755406   3.401306   3.874561   2.151970
    15  H    6.064489   6.102922   3.877464   3.398641   3.401383
    16  H    2.075931   2.542274   3.999342   4.968202   4.689768
    17  H    2.075973   2.541561   3.998983   4.967794   4.689273
    18  H    2.013198   3.621625   4.384990   5.625506   4.629989
                    6          7          8          9         10
     6  C    0.000000
     7  C    2.414192   0.000000
     8  C    1.394271   1.393892   0.000000
     9  C    3.752574   3.792623   4.271653   0.000000
    10  C    6.037258   5.591709   6.378392   2.314153   0.000000
    11  H    2.158413   3.874445   3.402556   2.643401   4.862239
    12  H    3.875177   2.148453   3.396266   2.760634   3.817913
    13  H    1.088143   3.401529   2.156983   4.614658   6.927367
    14  H    3.401044   1.088252   2.155710   4.673606   6.226705
    15  H    2.155956   2.156135   1.089052   5.360607   7.454233
    16  H    6.268496   6.051637   6.729468   2.611871   1.095287
    17  H    6.267955   6.051016   6.728830   2.611871   1.095289
    18  H    6.798094   6.002485   6.958996   3.207634   1.091835
                   11         12         13         14         15
    11  H    0.000000
    12  H    4.298304   0.000000
    13  H    2.485639   4.963320   0.000000
    14  H    4.962691   2.471153   4.301471   0.000000
    15  H    4.303019   4.294378   2.485396   2.484294   0.000000
    16  H    4.910739   4.419262   7.088140   6.745185   7.807040
    17  H    4.910468   4.418825   7.087601   6.744530   7.806344
    18  H    5.831828   4.006107   7.751313   6.477136   8.003738
                   16         17         18
    16  H    0.000000
    17  H    1.789750   0.000000
    18  H    1.794893   1.794884   0.000000
 Stoichiometry    C8H8O2
 Framework group  C1[X(C8H8O2)]
 Deg. of freedom    48
 Full point group                 C1      NOp   1
 Largest Abelian subgroup         C1      NOp   1
 Largest concise Abelian subgroup C1      NOp   1
                         Standard orientation:                         
 ---------------------------------------------------------------------
 Center     Atomic      Atomic             Coordinates (Angstroms)
 Number     Number       Type             X           Y           Z
 ---------------------------------------------------------------------
      1          8           0        1.977948   -0.756381    0.000526
      2          8           0        1.742360    1.452321   -0.000302
      3          6           0       -0.230410    0.108807    0.000304
      4          6           0       -1.079923    1.214333    0.000278
      5          6           0       -0.767430   -1.182158   -0.000154
      6          6           0       -2.458884    1.035390   -0.000145
      7          6           0       -2.148793   -1.358805   -0.000618
      8          6           0       -2.995445   -0.251503   -0.000615
      9          6           0        1.232299    0.359392    0.000755
     10          6           0        3.377792   -0.507883    0.000141
     11          1           0       -0.650929    2.214390    0.000637
     12          1           0       -0.114674   -2.050331   -0.000169
     13          1           0       -3.116867    1.902059   -0.000152
     14          1           0       -2.565842   -2.363972   -0.000957
     15          1           0       -4.075525   -0.391011   -0.000987
     16          1           0        3.667182    0.053508    0.894985
     17          1           0        3.666726    0.053648   -0.894765
     18          1           0        3.852230   -1.491251   -0.000067
 ---------------------------------------------------------------------
 Rotational constants (GHZ):           3.6018388           0.8409955           0.6847837
 Standard basis: 6-311++G(d,p) (5D, 7F)
 There are   286 symmetry adapted cartesian basis functions of A   symmetry.
 There are   276 symmetry adapted basis functions of A   symmetry.
   276 basis functions,   432 primitive gaussians,   286 cartesian basis functions
    36 alpha electrons       36 beta electrons
       nuclear repulsion energy       490.6707333293 Hartrees.
 NAtoms=   18 NActive=   18 NUniq=   18 SFac= 1.00D+00 NAtFMM=   60 NAOKFM=F Big=F
 Integral buffers will be    131072 words long.
 Raffenetti 2 integral format.
 Two-electron integral symmetry is turned on.
 R6APFD:  NTU= -4 IXU= 1 FactS= 1.050
 Nuclear repulsion after empirical dispersion term =      490.6610078120 Hartrees.
 One-electron integrals computed using PRISM.
 NBasis=   276 RedAO= T EigKep=  2.36D-06  NBF=   276
 NBsUse=   275 1.00D-06 EigRej=  9.85D-07 NBFU=   275
 Initial guess from the checkpoint file:  "MEBE0065.chk"
 B after Tr=     0.000000    0.000000    0.000000
         Rot=    0.999975   -0.000028    0.000042    0.007081 Ang=  -0.81 deg.
 ExpMin= 3.60D-02 ExpMax= 8.59D+03 ExpMxC= 1.30D+03 IAcc=3 IRadAn=         5 AccDes= 0.00D+00
 Harris functional with IExCor= 1009 and IRadAn=       5 diagonalized for initial guess.
 HarFok:  IExCor= 1009 AccDes= 0.00D+00 IRadAn=         5 IDoV= 1 UseB2=F ITyADJ=14
 ICtDFT=  3500011 ScaDFX=  1.000000  1.000000  1.000000  1.000000
 FoFCou: FMM=F IPFlag=           0 FMFlag=      100000 FMFlg1=           0
         NFxFlg=           0 DoJE=T BraDBF=F KetDBF=T FulRan=T
         wScrn=  0.000000 ICntrl=       500 IOpCl=  0 I1Cent=   200000004 NGrid=           0
         NMat0=    1 NMatS0=      1 NMatT0=    0 NMatD0=    1 NMtDS0=    0 NMtDT0=    0
 Petite list used in FoFCou.
 Requested convergence on RMS density matrix=1.00D-08 within  32 cycles.
 Requested convergence on MAX density matrix=1.00D-06.
 Requested convergence on             energy=1.00D-06.
 No special actions if energy rises.
 SCF Done:  E(RM08HX) =  -460.112051972     A.U. after   14 cycles
            NFock= 14  Conv=0.62D-08     -V/T= 2.0044
 QCSCF skips out because SCF is already converged.
 R6APFD:  NTU= -4 IXU= 1 FactS= 1.050
 Calling FoFJK, ICntrl=      2127 FMM=F ISym2X=0 I1Cent= 0 IOpClX= 0 NMat=1 NMatS=1 NMatT=0.
 ***** Axes restored to original set *****
 -------------------------------------------------------------------
 Center     Atomic                   Forces (Hartrees/Bohr)
 Number     Number              X              Y              Z
 -------------------------------------------------------------------
      1        8          -0.007041596   -0.001431017    0.000072480
      2        8          -0.007016658    0.002203187    0.000098409
      3        6          -0.004019024   -0.004097406    0.000060527
      4        6          -0.001415230    0.002233962    0.000007163
      5        6          -0.001018193   -0.000108072    0.000005214
      6        6           0.000109849   -0.000477355   -0.000006807
      7        6           0.000732590    0.000996102   -0.000001608
      8        6           0.000561175    0.000233984    0.000000514
      9        6           0.010452500    0.004052999   -0.000236240
     10        6           0.003831163   -0.005344841   -0.000003516
     11        1           0.001540125   -0.000392801   -0.000001190
     12        1           0.002611370    0.000466605    0.000003039
     13        1          -0.000121534    0.000055765    0.000000429
     14        1           0.000107035   -0.000115825   -0.000002171
     15        1           0.000124137   -0.000066035    0.000001323
     16        1           0.000178814    0.000812625   -0.000859275
     17        1           0.000171231    0.000811840    0.000858754
     18        1           0.000212246    0.000166283    0.000002954
 -------------------------------------------------------------------
 Cartesian Forces:  Max     0.010452500 RMS     0.002473554

 GradGradGradGradGradGradGradGradGradGradGradGradGradGradGradGradGradGrad
 Berny optimization.
 Using GEDIIS/GDIIS optimizer.
 FormGI is forming the generalized inverse of G from B-inverse, IUseBI=4.
 Internal  Forces:  Max     0.013130223 RMS     0.002411063
 Search for a local minimum.
 Step number   2 out of a maximum of   89
 All quantities printed in internal units (Hartrees-Bohrs-Radians)
 Mixed Optimization -- RFO/linear search
 Update second derivatives using D2CorX and points    1    2
 DE= -4.44D-03 DEPred=-5.26D-03 R= 8.44D-01
 TightC=F SS=  1.41D+00  RLast= 1.71D-01 DXNew= 5.0454D-01 5.1157D-01
 Trust test= 8.44D-01 RLast= 1.71D-01 DXMaxT set to 5.05D-01
 ITU=  1  0
 Use linear search instead of GDIIS.
     Eigenvalues ---    0.01273   0.01373   0.01606   0.01914   0.02111
     Eigenvalues ---    0.02155   0.02155   0.02156   0.02156   0.02156
     Eigenvalues ---    0.02156   0.02157   0.02157   0.10107   0.10665
     Eigenvalues ---    0.14728   0.16000   0.16000   0.16000   0.16000
     Eigenvalues ---    0.16000   0.16000   0.16073   0.21997   0.22002
     Eigenvalues ---    0.23408   0.24456   0.25000   0.25000   0.31770
     Eigenvalues ---    0.34355   0.34371   0.34465   0.35174   0.35211
     Eigenvalues ---    0.35259   0.35268   0.35309   0.38031   0.41581
     Eigenvalues ---    0.42190   0.42742   0.46363   0.46471   0.46476
     Eigenvalues ---    0.46589   0.53471   0.84265
 RFO step:  Lambda=-1.21068637D-03 EMin= 1.27306920D-02
 Quartic linear search produced a step of -0.12571.
 Iteration  1 RMS(Cart)=  0.03320706 RMS(Int)=  0.00043121
 Iteration  2 RMS(Cart)=  0.00083054 RMS(Int)=  0.00000984
 Iteration  3 RMS(Cart)=  0.00000025 RMS(Int)=  0.00000984
 Variable       Old X    -DE/DX   Delta X   Delta X   Delta X     New X
                                 (Linear)    (Quad)   (Total)
    R1        2.53600   0.00272   0.00626  -0.00783  -0.00157   2.53442
    R2        2.68668   0.00375   0.00236   0.00329   0.00565   2.69233
    R3        2.27918  -0.00105   0.00766  -0.01613  -0.00847   2.27071
    R4        2.63470   0.00032   0.00017   0.00025   0.00043   2.63513
    R5        2.64223  -0.00280  -0.00077  -0.00386  -0.00463   2.63760
    R6        2.80439   0.00098  -0.00710   0.01654   0.00943   2.81382
    R7        2.62771  -0.00040   0.00102  -0.00264  -0.00162   2.62608
    R8        2.05637   0.00026  -0.00033   0.00131   0.00098   2.05736
    R9        2.63166  -0.00117   0.00057  -0.00347  -0.00290   2.62875
   R10        2.05261   0.00117   0.00004   0.00282   0.00286   2.05547
   R11        2.63479   0.00028   0.00014   0.00038   0.00053   2.63532
   R12        2.05629   0.00012  -0.00048   0.00126   0.00078   2.05707
   R13        2.63407   0.00047   0.00024   0.00040   0.00064   2.63471
   R14        2.05650   0.00006  -0.00049   0.00114   0.00066   2.05715
   R15        2.05801  -0.00012  -0.00072   0.00116   0.00044   2.05845
   R16        2.06979  -0.00024  -0.00032   0.00003  -0.00029   2.06951
   R17        2.06980  -0.00024  -0.00030  -0.00000  -0.00030   2.06949
   R18        2.06327  -0.00006   0.00029  -0.00073  -0.00045   2.06282
    A1        1.98423   0.01027   0.00699   0.02145   0.02843   2.01266
    A2        2.09219   0.00251   0.00027   0.00807   0.00834   2.10054
    A3        2.05632   0.00026   0.00479  -0.00883  -0.00405   2.05227
    A4        2.13467  -0.00277  -0.00506   0.00076  -0.00429   2.13038
    A5        2.09694  -0.00141  -0.00030  -0.00446  -0.00476   2.09218
    A6        2.08118  -0.00091   0.00425  -0.01512  -0.01087   2.07030
    A7        2.10507   0.00232  -0.00395   0.01958   0.01563   2.12070
    A8        2.09219  -0.00096   0.00026  -0.00474  -0.00448   2.08771
    A9        2.10269  -0.00196   0.00461  -0.02084  -0.01623   2.08646
   A10        2.08831   0.00292  -0.00487   0.02558   0.02071   2.10902
   A11        2.09487  -0.00067  -0.00007  -0.00169  -0.00176   2.09311
   A12        2.09112   0.00040   0.00046   0.00031   0.00077   2.09189
   A13        2.09720   0.00027  -0.00040   0.00138   0.00099   2.09819
   A14        2.09639  -0.00013  -0.00025  -0.00012  -0.00038   2.09601
   A15        2.09127  -0.00008   0.00048  -0.00149  -0.00101   2.09026
   A16        2.09552   0.00022  -0.00023   0.00162   0.00139   2.09691
   A17        2.09378   0.00066   0.00009   0.00295   0.00303   2.09681
   A18        2.09428  -0.00025   0.00002  -0.00115  -0.00113   2.09315
   A19        2.09513  -0.00042  -0.00010  -0.00180  -0.00190   2.09323
   A20        2.11583   0.01313   0.00602   0.03339   0.03940   2.15523
   A21        1.99025  -0.00967  -0.00537  -0.02266  -0.02803   1.96221
   A22        2.17711  -0.00346  -0.00065  -0.01072  -0.01137   2.16574
   A23        1.92785   0.00019  -0.00067   0.00158   0.00091   1.92875
   A24        1.92790   0.00018  -0.00067   0.00152   0.00084   1.92874
   A25        1.84463   0.00075   0.00540  -0.00563  -0.00023   1.84440
   A26        1.91246  -0.00145   0.00244  -0.01608  -0.01364   1.89881
   A27        1.92514   0.00021  -0.00326   0.00967   0.00640   1.93155
   A28        1.92513   0.00021  -0.00326   0.00970   0.00643   1.93155
    D1        0.00091  -0.00006  -0.00012  -0.00256  -0.00273  -0.00182
    D2        3.14096   0.00004   0.00020   0.00180   0.00204  -3.14018
    D3        1.05939  -0.00079   0.00109  -0.00920  -0.00811   1.05129
    D4       -1.05927   0.00079  -0.00109   0.00896   0.00787  -1.05141
    D5       -3.14154  -0.00000   0.00000  -0.00012  -0.00011   3.14153
    D6        0.00005  -0.00000  -0.00001  -0.00008  -0.00009  -0.00004
    D7       -3.14159   0.00000  -0.00001   0.00004   0.00003  -3.14156
    D8        3.14158  -0.00000  -0.00002  -0.00010  -0.00012   3.14147
    D9       -0.00005  -0.00000  -0.00002   0.00002   0.00000  -0.00005
   D10       -0.00001   0.00000   0.00002   0.00002   0.00004   0.00003
   D11        3.14156   0.00000  -0.00001   0.00008   0.00007  -3.14156
   D12       -3.14155   0.00000   0.00003   0.00004   0.00007  -3.14148
   D13        0.00003   0.00000  -0.00000   0.00010   0.00010   0.00013
   D14       -3.14141  -0.00005  -0.00017  -0.00204  -0.00219   3.13959
   D15       -0.00142   0.00006   0.00016   0.00253   0.00267   0.00125
   D16        0.00013  -0.00006  -0.00018  -0.00206  -0.00222  -0.00209
   D17        3.14012   0.00006   0.00015   0.00251   0.00264  -3.14043
   D18       -0.00006   0.00000  -0.00001   0.00011   0.00010   0.00004
   D19        3.14158   0.00000   0.00001   0.00001   0.00002  -3.14158
   D20        3.14158  -0.00000  -0.00001  -0.00001  -0.00003   3.14156
   D21        0.00004  -0.00000   0.00001  -0.00011  -0.00010  -0.00007
   D22       -0.00001  -0.00000  -0.00002   0.00001  -0.00001  -0.00001
   D23       -3.14157  -0.00000  -0.00001  -0.00003  -0.00004   3.14157
   D24       -3.14158  -0.00000   0.00002  -0.00005  -0.00003   3.14157
   D25        0.00004  -0.00000   0.00002  -0.00009  -0.00006  -0.00003
   D26        0.00003  -0.00000   0.00002  -0.00008  -0.00006  -0.00003
   D27       -3.14155  -0.00000   0.00001  -0.00007  -0.00006   3.14158
   D28        3.14158   0.00000  -0.00001   0.00002   0.00001  -3.14159
   D29       -0.00000  -0.00000  -0.00001   0.00003   0.00002   0.00002
   D30       -0.00000   0.00000   0.00000   0.00002   0.00002   0.00002
   D31        3.14158   0.00000   0.00000   0.00001   0.00001  -3.14159
   D32        3.14156   0.00000  -0.00001   0.00006   0.00005  -3.14157
   D33       -0.00004   0.00000  -0.00000   0.00005   0.00004   0.00001
         Item               Value     Threshold  Converged?
 Maximum Force            0.013130     0.000450     NO 
 RMS     Force            0.002411     0.000300     NO 
 Maximum Displacement     0.100459     0.001800     NO 
 RMS     Displacement     0.033631     0.001200     NO 
 Predicted change in Energy=-7.033171D-04
 GradGradGradGradGradGradGradGradGradGradGradGradGradGradGradGradGradGrad

                          Input orientation:                          
 ---------------------------------------------------------------------
 Center     Atomic      Atomic             Coordinates (Angstroms)
 Number     Number       Type             X           Y           Z
 ---------------------------------------------------------------------
      1          8           0        2.084863   -0.795283    0.000044
      2          8           0        1.863649    1.434491   -0.000184
      3          6           0       -0.097721    0.085561   -0.000767
      4          6           0       -0.944542    1.193434    0.000184
      5          6           0       -0.626333   -1.206222   -0.001057
      6          6           0       -2.322254    1.011571    0.000800
      7          6           0       -2.005940   -1.384477   -0.000423
      8          6           0       -2.853824   -0.277693    0.000514
      9          6           0        1.369532    0.339178   -0.001560
     10          6           0        3.499216   -0.623717    0.001218
     11          1           0       -0.501944    2.188114    0.000354
     12          1           0        0.046313   -2.061004   -0.001768
     13          1           0       -2.983056    1.876610    0.001534
     14          1           0       -2.420791   -2.390928   -0.000664
     15          1           0       -3.933736   -0.420285    0.001012
     16          1           0        3.817969   -0.071259    0.891447
     17          1           0        3.819621   -0.072841   -0.889388
     18          1           0        3.918579   -1.631547    0.002505
 ---------------------------------------------------------------------
                    Distance matrix (angstroms):
                    1          2          3          4          5
     1  O    0.000000
     2  O    2.240721   0.000000
     3  C    2.353627   2.380458   0.000000
     4  C    3.623850   2.818517   1.394449   0.000000
     5  C    2.742162   3.629514   1.395755   2.420662   0.000000
     6  C    4.763129   4.207213   2.409574   1.389664   2.791909
     7  C    4.133016   4.787514   2.408799   2.787864   1.391076
     8  C    4.965736   5.018578   2.779939   2.410306   2.413273
     9  C    1.341158   1.201609   1.489010   2.466717   2.524230
    10  C    1.424721   2.628936   3.666201   4.800939   4.166469
    11  H    3.948700   2.482736   2.141058   1.088706   3.396615
    12  H    2.399529   3.939695   2.151392   3.401935   1.087706
    13  H    5.729120   4.866828   3.396030   2.149947   3.880465
    14  H    4.779854   5.743715   3.395535   3.876463   2.150259
    15  H    6.030271   6.086860   3.869225   3.396965   3.399503
    16  H    2.079054   2.623291   4.019112   5.007525   4.672956
    17  H    2.079038   2.624607   4.019988   5.009195   4.673349
    18  H    2.015404   3.690980   4.367966   5.624096   4.564771
                    6          7          8          9         10
     6  C    0.000000
     7  C    2.416837   0.000000
     8  C    1.394550   1.394230   0.000000
     9  C    3.752519   3.790092   4.268170   0.000000
    10  C    6.046790   5.557472   6.362456   2.337248   0.000000
    11  H    2.167436   3.876262   3.407572   2.630778   4.890366
    12  H    3.879540   2.160887   3.404555   2.740763   3.740099
    13  H    1.088556   3.404328   2.158176   4.616138   6.947768
    14  H    3.403926   1.088599   2.157147   4.671192   6.178149
    15  H    2.155711   2.155473   1.089285   5.357373   7.435735
    16  H    6.298262   6.036380   6.734181   2.638326   1.095135
    17  H    6.300080   6.037202   6.735634   2.638359   1.095127
    18  H    6.777467   5.929669   6.906400   3.222020   1.091599
                   11         12         13         14         15
    11  H    0.000000
    12  H    4.284343   0.000000
    13  H    2.500590   4.968087   0.000000
    14  H    4.964837   2.489067   4.304420   0.000000
    15  H    4.310562   4.304969   2.485865   2.484439   0.000000
    16  H    4.955851   4.356869   7.130223   6.715568   7.810482
    17  H    4.957770   4.356434   7.132357   6.716108   7.812047
    18  H    5.842160   3.896010   7.742075   6.384691   7.945187
                   16         17         18
    16  H    0.000000
    17  H    1.780837   0.000000
    18  H    1.798566   1.798563   0.000000
 Stoichiometry    C8H8O2
 Framework group  C1[X(C8H8O2)]
 Deg. of freedom    48
 Full point group                 C1      NOp   1
 Largest Abelian subgroup         C1      NOp   1
 Largest concise Abelian subgroup C1      NOp   1
                         Standard orientation:                         
 ---------------------------------------------------------------------
 Center     Atomic      Atomic             Coordinates (Angstroms)
 Number     Number       Type             X           Y           Z
 ---------------------------------------------------------------------
      1          8           0        1.962586   -0.734675    0.000081
      2          8           0        1.714183    1.492234   -0.000147
      3          6           0       -0.230582    0.119474   -0.000730
      4          6           0       -1.090857    1.216933    0.000220
      5          6           0       -0.743394   -1.178662   -0.001020
      6          6           0       -2.466248    1.018274    0.000837
      7          6           0       -2.120724   -1.373736   -0.000386
      8          6           0       -2.982049   -0.277379    0.000551
      9          6           0        1.233467    0.390974   -0.001524
     10          6           0        3.374740   -0.545866    0.001255
     11          1           0       -0.660429    2.216939    0.000390
     12          1           0       -0.060370   -2.025174   -0.001731
     13          1           0       -3.137555    1.875187    0.001571
     14          1           0       -2.523265   -2.385174   -0.000627
     15          1           0       -4.060141   -0.433137    0.001048
     16          1           0        3.686729    0.010440    0.891484
     17          1           0        3.688400    0.008878   -0.889352
     18          1           0        3.806368   -1.548504    0.002542
 ---------------------------------------------------------------------
 Rotational constants (GHZ):           3.5401799           0.8482202           0.6872446
 Standard basis: 6-311++G(d,p) (5D, 7F)
 There are   286 symmetry adapted cartesian basis functions of A   symmetry.
 There are   276 symmetry adapted basis functions of A   symmetry.
   276 basis functions,   432 primitive gaussians,   286 cartesian basis functions
    36 alpha electrons       36 beta electrons
       nuclear repulsion energy       490.7353004627 Hartrees.
 NAtoms=   18 NActive=   18 NUniq=   18 SFac= 1.00D+00 NAtFMM=   60 NAOKFM=F Big=F
 Integral buffers will be    131072 words long.
 Raffenetti 2 integral format.
 Two-electron integral symmetry is turned on.
 R6APFD:  NTU= -4 IXU= 1 FactS= 1.050
 Nuclear repulsion after empirical dispersion term =      490.7253945858 Hartrees.
 One-electron integrals computed using PRISM.
 NBasis=   276 RedAO= T EigKep=  1.01D-06  NBF=   276
 NBsUse=   276 1.00D-06 EigRej= -1.00D+00 NBFU=   276
 Initial guess from the checkpoint file:  "MEBE0065.chk"
 B after Tr=    -0.000000   -0.000000   -0.000000
         Rot=    0.999997   -0.000015   -0.000040   -0.002362 Ang=  -0.27 deg.
 ExpMin= 3.60D-02 ExpMax= 8.59D+03 ExpMxC= 1.30D+03 IAcc=3 IRadAn=         5 AccDes= 0.00D+00
 Harris functional with IExCor= 1009 and IRadAn=       5 diagonalized for initial guess.
 HarFok:  IExCor= 1009 AccDes= 0.00D+00 IRadAn=         5 IDoV= 1 UseB2=F ITyADJ=14
 ICtDFT=  3500011 ScaDFX=  1.000000  1.000000  1.000000  1.000000
 FoFCou: FMM=F IPFlag=           0 FMFlag=      100000 FMFlg1=           0
         NFxFlg=           0 DoJE=T BraDBF=F KetDBF=T FulRan=T
         wScrn=  0.000000 ICntrl=       500 IOpCl=  0 I1Cent=   200000004 NGrid=           0
         NMat0=    1 NMatS0=      1 NMatT0=    0 NMatD0=    1 NMtDS0=    0 NMtDT0=    0
 Petite list used in FoFCou.
 Requested convergence on RMS density matrix=1.00D-08 within  32 cycles.
 Requested convergence on MAX density matrix=1.00D-06.
 Requested convergence on             energy=1.00D-06.
 No special actions if energy rises.
 SCF Done:  E(RM08HX) =  -460.112711038     A.U. after   14 cycles
            NFock= 14  Conv=0.44D-08     -V/T= 2.0044
 QCSCF skips out because SCF is already converged.
 R6APFD:  NTU= -4 IXU= 1 FactS= 1.050
 Calling FoFJK, ICntrl=      2127 FMM=F ISym2X=0 I1Cent= 0 IOpClX= 0 NMat=1 NMatS=1 NMatT=0.
 ***** Axes restored to original set *****
 -------------------------------------------------------------------
 Center     Atomic                   Forces (Hartrees/Bohr)
 Number     Number              X              Y              Z
 -------------------------------------------------------------------
      1        8          -0.000813896    0.000435664   -0.000150430
      2        8           0.002391660    0.002058495   -0.000183363
      3        6          -0.001349825   -0.000876903   -0.000142629
      4        6           0.000010393    0.000668026   -0.000011960
      5        6           0.000470166   -0.000107124   -0.000004650
      6        6          -0.000347815    0.000292942    0.000011780
      7        6          -0.000270710   -0.000228322    0.000006994
      8        6           0.000085372   -0.000078118   -0.000001696
      9        6          -0.000661304   -0.002147080    0.000477501
     10        6           0.000245547   -0.000807979    0.000006557
     11        1           0.000001291   -0.000132078   -0.000000200
     12        1          -0.000019830    0.000156553   -0.000002640
     13        1          -0.000136798   -0.000250850    0.000000072
     14        1          -0.000170102    0.000179035    0.000001524
     15        1           0.000261390   -0.000009177   -0.000001108
     16        1          -0.000111667    0.000123767    0.000209656
     17        1          -0.000101110    0.000124607   -0.000211935
     18        1           0.000517236    0.000598543   -0.000003471
 -------------------------------------------------------------------
 Cartesian Forces:  Max     0.002391660 RMS     0.000631168

 GradGradGradGradGradGradGradGradGradGradGradGradGradGradGradGradGradGrad
 Berny optimization.
 Using GEDIIS/GDIIS optimizer.
 FormGI is forming the generalized inverse of G from B-inverse, IUseBI=4.
 Internal  Forces:  Max     0.002860111 RMS     0.000538732
 Search for a local minimum.
 Step number   3 out of a maximum of   89
 All quantities printed in internal units (Hartrees-Bohrs-Radians)
 Mixed Optimization -- En-DIIS/RFO-DIIS
 Update second derivatives using D2CorX and points    1    2    3
 DE= -6.59D-04 DEPred=-7.03D-04 R= 9.37D-01
 TightC=F SS=  1.41D+00  RLast= 7.19D-02 DXNew= 8.4853D-01 2.1576D-01
 Trust test= 9.37D-01 RLast= 7.19D-02 DXMaxT set to 5.05D-01
 ITU=  1  1  0
 Use linear search instead of GDIIS.
     Eigenvalues ---    0.01273   0.01373   0.01620   0.01916   0.02111
     Eigenvalues ---    0.02155   0.02155   0.02156   0.02156   0.02156
     Eigenvalues ---    0.02156   0.02157   0.02157   0.09823   0.10639
     Eigenvalues ---    0.14438   0.16000   0.16000   0.16000   0.16000
     Eigenvalues ---    0.16000   0.16019   0.16330   0.21978   0.22004
     Eigenvalues ---    0.23159   0.24622   0.25000   0.25371   0.32231
     Eigenvalues ---    0.34355   0.34387   0.34551   0.35174   0.35202
     Eigenvalues ---    0.35259   0.35268   0.35289   0.39382   0.41690
     Eigenvalues ---    0.42162   0.43538   0.46406   0.46472   0.46519
     Eigenvalues ---    0.46573   0.54649   0.86945
 RFO step:  Lambda=-4.92272843D-05 EMin= 1.27307025D-02
 Quartic linear search produced a step of -0.08107.
 Iteration  1 RMS(Cart)=  0.00488001 RMS(Int)=  0.00001976
 Iteration  2 RMS(Cart)=  0.00003210 RMS(Int)=  0.00000555
 Iteration  3 RMS(Cart)=  0.00000000 RMS(Int)=  0.00000555
 Variable       Old X    -DE/DX   Delta X   Delta X   Delta X     New X
                                 (Linear)    (Quad)   (Total)
    R1        2.53442  -0.00055   0.00013  -0.00085  -0.00072   2.53370
    R2        2.69233   0.00055  -0.00046   0.00208   0.00162   2.69395
    R3        2.27071   0.00286   0.00069   0.00228   0.00297   2.27368
    R4        2.63513   0.00062  -0.00003   0.00134   0.00131   2.63643
    R5        2.63760  -0.00005   0.00038  -0.00071  -0.00034   2.63726
    R6        2.81382   0.00151  -0.00076   0.00449   0.00373   2.81755
    R7        2.62608   0.00035   0.00013   0.00058   0.00071   2.62679
    R8        2.05736  -0.00012  -0.00008  -0.00020  -0.00028   2.05707
    R9        2.62875   0.00023   0.00024   0.00007   0.00031   2.62906
   R10        2.05547  -0.00013  -0.00023   0.00002  -0.00021   2.05526
   R11        2.63532   0.00000  -0.00004   0.00006   0.00001   2.63533
   R12        2.05707  -0.00012  -0.00006  -0.00023  -0.00029   2.05678
   R13        2.63471  -0.00016  -0.00005  -0.00028  -0.00033   2.63439
   R14        2.05715  -0.00010  -0.00005  -0.00020  -0.00025   2.05690
   R15        2.05845  -0.00026  -0.00004  -0.00064  -0.00068   2.05777
   R16        2.06951   0.00020   0.00002   0.00048   0.00050   2.07001
   R17        2.06949   0.00021   0.00002   0.00049   0.00051   2.07001
   R18        2.06282  -0.00036   0.00004  -0.00098  -0.00094   2.06188
    A1        2.01266  -0.00178  -0.00231  -0.00232  -0.00462   2.00804
    A2        2.10054   0.00014  -0.00068   0.00181   0.00113   2.10167
    A3        2.05227   0.00031   0.00033   0.00077   0.00110   2.05337
    A4        2.13038  -0.00045   0.00035  -0.00258  -0.00223   2.12815
    A5        2.09218  -0.00022   0.00039  -0.00134  -0.00096   2.09123
    A6        2.07030   0.00006   0.00088  -0.00124  -0.00036   2.06994
    A7        2.12070   0.00017  -0.00127   0.00258   0.00132   2.12201
    A8        2.08771  -0.00006   0.00036  -0.00084  -0.00047   2.08724
    A9        2.08646  -0.00005   0.00132  -0.00234  -0.00102   2.08543
   A10        2.10902   0.00011  -0.00168   0.00318   0.00150   2.11051
   A11        2.09311  -0.00013   0.00014  -0.00073  -0.00059   2.09252
   A12        2.09189   0.00034  -0.00006   0.00191   0.00185   2.09374
   A13        2.09819  -0.00020  -0.00008  -0.00118  -0.00126   2.09693
   A14        2.09601  -0.00006   0.00003  -0.00050  -0.00047   2.09555
   A15        2.09026   0.00026   0.00008   0.00141   0.00150   2.09176
   A16        2.09691  -0.00020  -0.00011  -0.00091  -0.00103   2.09588
   A17        2.09681   0.00033  -0.00025   0.00161   0.00136   2.09817
   A18        2.09315  -0.00012   0.00009  -0.00048  -0.00039   2.09275
   A19        2.09323  -0.00021   0.00015  -0.00113  -0.00097   2.09226
   A20        2.15523  -0.00163  -0.00319  -0.00037  -0.00358   2.15165
   A21        1.96221   0.00024   0.00227  -0.00314  -0.00089   1.96133
   A22        2.16574   0.00139   0.00092   0.00354   0.00444   2.17018
   A23        1.92875  -0.00044  -0.00007  -0.00270  -0.00277   1.92598
   A24        1.92874  -0.00042  -0.00007  -0.00261  -0.00269   1.92605
   A25        1.84440   0.00125   0.00002   0.00794   0.00796   1.85236
   A26        1.89881   0.00005   0.00111  -0.00254  -0.00144   1.89737
   A27        1.93155  -0.00021  -0.00052   0.00006  -0.00046   1.93109
   A28        1.93155  -0.00022  -0.00052   0.00003  -0.00049   1.93106
    D1       -0.00182   0.00013   0.00022   0.00601   0.00622   0.00440
    D2       -3.14018  -0.00011  -0.00017  -0.00547  -0.00562   3.13739
    D3        1.05129  -0.00025   0.00066  -0.00325  -0.00259   1.04870
    D4       -1.05141   0.00025  -0.00064   0.00340   0.00276  -1.04865
    D5        3.14153   0.00000   0.00001   0.00007   0.00008  -3.14157
    D6       -0.00004   0.00000   0.00001   0.00016   0.00016   0.00012
    D7       -3.14156  -0.00000  -0.00000  -0.00001  -0.00001  -3.14157
    D8        3.14147   0.00001   0.00001   0.00039   0.00039  -3.14132
    D9       -0.00005   0.00000  -0.00000   0.00022   0.00022   0.00017
   D10        0.00003  -0.00000  -0.00000  -0.00014  -0.00014  -0.00012
   D11       -3.14156  -0.00000  -0.00001  -0.00001  -0.00002  -3.14157
   D12       -3.14148  -0.00001  -0.00001  -0.00038  -0.00038   3.14132
   D13        0.00013  -0.00001  -0.00001  -0.00025  -0.00026  -0.00013
   D14        3.13959   0.00011   0.00018   0.00576   0.00595  -3.13765
   D15        0.00125  -0.00012  -0.00022  -0.00579  -0.00601  -0.00476
   D16       -0.00209   0.00012   0.00018   0.00600   0.00619   0.00409
   D17       -3.14043  -0.00011  -0.00021  -0.00555  -0.00578   3.13698
   D18        0.00004  -0.00000  -0.00001  -0.00011  -0.00011  -0.00007
   D19       -3.14158  -0.00000  -0.00000  -0.00008  -0.00009   3.14151
   D20        3.14156   0.00000   0.00000   0.00006   0.00007  -3.14156
   D21       -0.00007   0.00000   0.00001   0.00009   0.00009   0.00003
   D22       -0.00001   0.00000   0.00000   0.00007   0.00007   0.00006
   D23        3.14157   0.00000   0.00000   0.00008   0.00008  -3.14153
   D24        3.14157  -0.00000   0.00000  -0.00006  -0.00006   3.14151
   D25       -0.00003  -0.00000   0.00001  -0.00006  -0.00005  -0.00008
   D26       -0.00003   0.00000   0.00001   0.00004   0.00004   0.00002
   D27        3.14158   0.00000   0.00000   0.00003   0.00003  -3.14158
   D28       -3.14159   0.00000  -0.00000   0.00002   0.00002  -3.14157
   D29        0.00002   0.00000  -0.00000   0.00001   0.00000   0.00002
   D30        0.00002  -0.00000  -0.00000  -0.00002  -0.00002  -0.00001
   D31       -3.14159  -0.00000  -0.00000  -0.00001  -0.00001   3.14159
   D32       -3.14157  -0.00000  -0.00000  -0.00003  -0.00003   3.14158
   D33        0.00001  -0.00000  -0.00000  -0.00001  -0.00002  -0.00001
         Item               Value     Threshold  Converged?
 Maximum Force            0.002860     0.000450     NO 
 RMS     Force            0.000539     0.000300     NO 
 Maximum Displacement     0.017110     0.001800     NO 
 RMS     Displacement     0.004882     0.001200     NO 
 Predicted change in Energy=-3.021137D-05
 GradGradGradGradGradGradGradGradGradGradGradGradGradGradGradGradGradGrad

[...]
 761,0.0635055,-0.0967936,0.0000358,0.0707694,-0.0266678,0.0000229,-0.0
 000521,-0.0000131,-0.1078074,-0.0612504,-0.1795056,0.0000012,-0.132676
 ,-0.0140898,-0.0000154,0.0000361,-0.0000383,-0.1452915,-0.1474,0.13700
 63,0.0000218,0.1117851,0.062863,0.0000626,0.0000463,0.0000691,-0.14591
 81,0.0832977,0.0057552,0.0000564,0.0012809,0.050561,0.0000239,0.000024
 3,0.0000305,-0.1195947,2.189457,0.0168218,0.0002363,-0.3934958,1.62076
 11,0.0002107,0.0000648,0.0000715,0.3083031,0.9123667,-0.1148472,-0.000
 0314,-0.0059279,0.2780257,-0.0000023,-0.0000359,0.0000292,0.281135,0.1
 025245,-0.0370347,-0.0000182,-0.0226496,0.0189936,-0.0000275,-0.000022
 8,-0.0000232,0.1382277,0.0789581,0.0522676,-0.0000144,0.0627804,0.0235
 292,-0.0000032,-0.0000094,-0.0000071,0.1374309,0.0035008,0.0665105,-0.
 0000203,0.0760149,-0.0191136,-0.0000065,-0.0000147,0.,0.1426573,0.0367
 711,-0.0489094,-0.0000296,-0.0604487,-0.0553104,-0.0000443,-0.000024,-
 0.0000487,0.1419035,-0.0795049,-0.0199567,-0.000054,-0.0203443,0.07428
 14,-0.0000154,-0.0000631,-0.0000171,0.1391574,-0.0362156,0.032131,0.00
 97848,-0.0659256,0.0459136,-0.0739488,-0.0566011,-0.0501745,-0.0492516
 ,-0.0361873,0.0321573,-0.0098048,-0.065918,0.0458644,0.073984,0.056547
 7,0.0501983,-0.0491921,0.0003563,0.0283163,0.0000031,0.1081703,-0.0686
 491,-0.0000445,0.0000327,-0.0000442,0.0929159\Polar=128.8926078,0.6993
 568,102.5661436,0.010804,0.0057673,58.3128641\Quadrupole=6.312802,-1.9
 267822,-4.3860198,-3.7728276,0.0014208,0.0006531\PG=C01 [X(C8H8O2)]\NI
 mag=0\\0.49438796,-0.07216767,0.41838476,-0.00004705,0.00005001,0.0775
 7552,0.03097020,0.01469418,-0.00000024,0.22305835,0.01613696,-0.121363
 82,-0.00000108,0.26210795,0.74251023,0.00000093,-0.00000710,0.03072137
 ,-0.00006593,-0.00012333,0.03559311,-0.03758504,0.01192550,-0.00000892
 ,-0.00271942,-0.01422682,-0.00001092,0.63551610,0.04087670,0.00219431,
 0.00000014,-0.03444409,-0.00818556,0.00000140,-0.01883719,0.71286634,0
 .00001149,-0.00000530,0.01119663,0.00000862,0.00000821,0.02125237,0.00
 011134,0.00008068,0.14378871,-0.00475255,-0.00189823,0.00000004,-0.001
 58263,0.00602851,-0.00000219,-0.19371753,0.06006846,-0.00002975,0.7022
 3704,-0.00685325,0.00124722,0.00000041,-0.00285052,-0.00662189,0.00000
 159,0.12977418,-0.26130340,0.00000531,0.03668324,0.72453436,-0.0000023
 5,-0.00000089,0.00105890,-0.00000008,-0.00000182,0.00002931,-0.0000175
 8,-0.00001215,-0.06405008,0.00014128,0.00009204,0.13960412,-0.00605142
 ,-0.00184557,0.00000009,-0.00628476,-0.00148469,0.00000243,-0.15207484
 ,-0.03104021,-0.00003469,0.07087140,-0.01084919,0.00001357,0.71155174,
 0.00109679,-0.00548508,-0.00000186,0.00600258,0.00344639,-0.00000130,-
 0.09976372,-0.30615983,-0.00006771,0.04482240,-0.05683347,0.00000269,-
 0.03971153,0.71022137,-0.00000116,0.00000061,0.00030109,-0.00000049,-0
 .00000025,0.00255103,-0.00004240,-0.00005072,-0.06319300,0.00002272,-0
 .00001286,0.00610648,0.00013775,0.00007980,0.14120144,-0.00258460,0.00
 021204,-0.00000009,0.00105855,-0.00194646,0.00000145,-0.04103014,0.072
 04451,-0.00000056,-0.34632517,-0.06572045,-0.00007306,-0.05206561,-0.0
 4007666,-0.00001709,0.70203030,0.00098443,0.00151097,-0.00000016,-0.00
 099601,0.00087768,-0.00000031,0.01585345,0.05253775,0.00001229,0.01008
 367,-0.13643093,-0.00000854,-0.03870977,-0.02999778,-0.00001304,-0.039
 13037,0.71218941,-0.00000122,0.00000066,-0.00025378,0.00000011,-0.0000
 0104,-0.00069628,-0.00001166,0.00002643,0.00617418,-0.00006005,-0.0000
 2809,-0.06230325,-0.00001719,-0.00001449,-0.00527953,0.00012578,0.0000
 8015,0.13457800,0.00022064,0.00111810,0.00000083,-0.00291053,-0.001415
 03,-0.00000025,-0.01297874,-0.09025599,-0.00001670,-0.07009022,0.02978
 630,-0.00001163,-0.34191150,0.01006282,-0.00006647,0.07409456,0.045585
 66,0.00002422,0.68003438,0.00093906,0.00109064,0.00000086,-0.00173681,
 0.00047628,0.00000173,-0.03369999,0.02374842,-0.00000849,0.02786229,-0
 .01225754,0.00000541,-0.06651072,-0.13592780,-0.00002602,-0.01120062,-
 0.05587078,-0.00001144,0.03066845,0.73170543,0.00000042,0.00000090,-0.
 00037878,-0.00000216,-0.00000094,-0.00169891,-0.00001136,-0.00002095,0
 .00682326,-0.00001259,0.00000735,-0.00513678,-0.00007384,-0.00000647,-
 0.06413099,0.00001576,0.00000167,0.00623552,0.00013600,0.00009936,0.13
 539186,-0.00085136,0.00019815,-0.00000022,-0.00051508,0.00020300,-0.00
 000068,-0.00533107,0.01010438,0.00000173,-0.00914877,-0.03716882,-0.00
 000925,-0.03941724,0.01929751,-0.00000872,-0.16175267,-0.10996263,-0.0
 0004224,-0.20737292,0.13746353,-0.00001513,0.74317408,0.00102644,0.000
 17200,0.00000041,-0.00169171,0.00019477,-0.00000090,0.00968817,-0.0778
 8207,-0.00000735,-0.09393319,0.02612041,-0.00001979,0.07671761,0.05593
 968,0.00002574,-0.03242513,-0.30790281,-0.00004852,0.05982544,-0.26235
 221,-0.00001663,0.01038028,0.66538524,0.00000006,-0.00000018,-0.000075
 94,-0.00000029,0.00000028,0.00013790,0.00000204,-0.00000807,-0.0069386
 0,-0.00001692,-0.00000623,0.00558440,0.00000031,0.00001281,0.00629012,
 -0.00003119,-0.00006834,-0.06189678,-0.00002705,0.00000289,-0.06246867
 ,0.00014880,0.00008609,0.13732472,-0.17731343,0.05762974,0.00002630,-0
 .23996716,-0.25421522,0.00007329,-0.20618132,-0.01669195,-0.00005048,-
 0.03059395,0.00988377,-0.00000537,-0.01111900,-0.01670378,-0.00000291,
 0.00322001,0.00462708,0.00000175,0.00639141,-0.00126257,0.00000124,0.0
 0163806,0.00101609,0.00000034,0.70201172,0.07411585,-0.21416223,-0.000
 04563,-0.24559183,-0.61242770,0.00013093,-0.00838225,-0.09908714,-0.00
 000934,0.02057522,0.01624352,0.00001027,-0.02959847,0.00490946,-0.0000
 0846,0.00779797,-0.00466832,0.00000081,-0.00373902,-0.00683509,-0.0000
 0373,0.00022891,-0.00467520,-0.00000046,0.17091478,0.91920688,0.000020
 60,-0.00003120,-0.06957278,0.00006095,0.00011908,-0.08267671,-0.000009
 96,-0.00000785,-0.08311523,-0.00000180,-0.00000136,0.00280132,-0.00000
 953,0.00000180,0.00022045,-0.00000178,0.00000083,0.00770380,-0.0000016
 9,-0.00000491,0.00870780,0.00000252,0.00000021,-0.00098545,-0.00006569
 ,-0.00007490,0.22139482,-0.21365085,-0.01677960,0.00001376,-0.00245279
 ,-0.01752705,0.00000325,0.00418068,0.00020977,0.00000120,-0.00031290,0
 .00047079,0.00000048,0.00069741,0.00022914,0.00000059,0.00060994,0.000
 36255,-0.00000006,0.00006135,-0.00044779,-0.00000034,0.00032939,-0.000
 24179,0.00000020,-0.04946038,0.03556037,0.00000700,0.46811732,-0.04426
 335,-0.09485297,-0.00000425,0.00452159,-0.00271620,-0.00000059,0.00166
 755,-0.00529471,-0.00000373,0.00139402,0.00064720,0.00000098,-0.000624
 70,-0.00045800,-0.00000004,0.00003553,-0.00052210,-0.00000004,0.000078
 60,0.00032292,0.00000016,-0.00018677,0.00008761,0.00000006,0.04223133,
 0.00663083,-0.00000094,-0.03206806,0.62320024,0.00000785,-0.00000569,-
 0.06673768,0.00000079,0.00000052,-0.00629424,-0.00000329,-0.00000160,0
 .00550699,0.00000037,0.00000022,0.00022803,-0.00000042,-0.00000040,-0.
 00046541,0.,-0.00000028,-0.00028403,0.00000015,0.00000029,0.00016003,-
 0.00000026,0.00000011,-0.00001549,0.00002102,-0.00000393,0.00303306,0.
 00000766,0.00001701,0.58043814,0.00084377,-0.00159137,-0.00000044,-0.0
 0200439,-0.00106121,-0.00000006,0.01253602,0.01621311,0.00000501,-0.10
 303365,-0.10391487,-0.00003168,-0.00232500,0.00368264,-0.00000175,-0.0
 0530087,-0.02772105,-0.00000667,-0.00111912,0.00076836,0.00000011,-0.0
 0554736,-0.00008271,-0.00000312,0.00024187,0.00305676,0.00000119,-0.00
 026140,-0.00004525,-0.00000003,0.10506459,-0.00001629,0.00071990,0.000
 00022,-0.00069361,0.00224998,-0.00000040,-0.01170523,-0.01856158,-0.00
 000593,-0.10192555,-0.29357824,-0.00006267,0.00414504,-0.00204139,0.00
 000004,0.00162402,0.00240104,0.00000023,0.00060785,0.00054405,0.000000
 34,0.00004792,0.00163347,-0.00000076,-0.00186022,-0.00308856,0.0000003
 4,0.00007705,-0.00000618,-0.00000004,0.11059115,0.31015063,0.00000020,
 0.,0.00014571,-0.00000005,0.00000063,-0.00033543,0.00000149,-0.0000013
 3,0.00438479,-0.00003218,-0.00006070,-0.04047385,-0.00000123,0.0000001
 0,0.00653599,-0.00000121,-0.00000717,0.00434422,-0.00000056,0.00000054
 ,-0.00115107,-0.00000331,-0.00000162,0.00781842,-0.00000040,0.00000061
 ,-0.00406518,0.,-0.00000012,0.00017269,0.00003601,0.00006832,0.0276254
 6,-0.00391698,-0.00151127,-0.00000043,0.00014591,0.00081757,-0.0000001
 7,0.01107068,-0.00890534,0.00000113,-0.00012322,-0.00331209,-0.0000022
 4,-0.16418015,0.13835694,-0.00001185,-0.00068453,-0.00108157,-0.000000
 06,-0.01158058,0.02469005,-0.00000076,-0.00516976,-0.00173659,-0.00000
 342,0.00113160,-0.00066398,0.00000093,-0.00053421,0.00002905,0.0000000
 1,0.00054408,-0.00064304,-0.00000010,0.17319484,-0.00030004,0.00128859
 ,0.00000040,-0.00029699,0.00099840,-0.00000004,0.01970040,-0.01699502,
 0.00000211,-0.00377732,-0.00395479,-0.00000274,0.13612605,-0.23419470,
 0.00000642,-0.00090857,0.00010400,0.00000002,-0.00509468,0.00792183,-0
 .00000096,-0.00169181,0.00122907,-0.00000141,0.00251725,-0.00244853,0.
 00000015,-0.00081928,0.00059311,0.00000037,0.00109486,-0.00092566,0.00
 000007,-0.14704627,0.24554909,-0.00000041,-0.00000034,0.00015920,0.000
 00044,0.00000076,0.00053479,0.00000652,-0.00000271,0.00368916,-0.00000
 191,-0.00000286,0.00676416,-0.00001331,0.00000400,-0.04005826,-0.00000
 068,-0.00000043,-0.00113838,-0.00000374,0.00000719,0.00444103,-0.00000
 376,-0.00000084,0.00776692,-0.00000003,-0.00000035,-0.00401328,-0.0000
 0026,0.00000013,-0.00021395,0.00000022,-0.00000039,0.00035954,0.000015
 45,-0.00000533,0.02703300,-0.00101205,0.00009433,0.00000016,-0.0002652
 4,-0.00041412,0.00000018,-0.00537854,-0.00211899,-0.00000399,-0.013128
 94,0.02637583,-0.00000004,-0.00063255,-0.00116546,-0.00000013,-0.16183
 160,0.13468948,-0.00000875,0.00017313,-0.00291356,-0.00000198,0.011048
 48,-0.01126282,0.00000014,0.00060689,0.00168351,-0.00000016,0.00014292
 ,0.00013322,0.00000007,0.00067556,-0.00039459,0.00000112,0.00000938,0.
 00010431,0.00000025,0.16876896,-0.00000898,-0.00003890,0.00000004,0.00
 016917,0.00002173,0.00000003,-0.00145277,0.00155372,-0.00000133,-0.004
 63827,0.00704024,-0.00000059,-0.00119371,-0.00004671,-0.00000017,0.134
 77353,-0.23393073,0.00000301,-0.00348672,-0.00410861,-0.00000254,0.019
 93698,-0.01669215,0.00000190,-0.00042836,0.00028946,-0.00000026,-0.000
 06630,0.00001461,0.00000004,0.00036793,0.00051207,0.00000085,0.0000744
 7,-0.00000241,0.00000018,-0.14458803,0.24580161,-0.00000015,0.00000002
 ,-0.00017443,0.00000002,0.,0.00004517,-0.00000312,-0.00000115,0.007943
 98,-0.00000473,0.00000681,0.00337882,-0.00000007,-0.00000008,-0.001031
 97,-0.00000908,0.00000316,-0.03861447,-0.00000247,-0.00000242,0.007400
 36,0.00000506,-0.00000589,0.00335339,-0.00000013,0.00000012,0.00031029
 ,-0.00000002,0.00000001,-0.00006944,0.00000114,0.00000051,-0.00421612,
 0.00000029,0.00000018,-0.00107412,0.00001211,-0.00000176,0.02656959,-0
 .00030769,0.00034199,0.00000024,-0.00098232,-0.00042418,0.00000036,-0.
 00588691,0.00014992,-0.00000404,-0.00117187,0.00087411,0.00000006,-0.0
 0646125,-0.02993937,-0.00000679,-0.00172486,0.00359137,-0.00000155,-0.
 09960123,-0.09876080,-0.00003052,0.01138531,0.01869893,0.00000482,0.00
 105132,-0.00155419,-0.00000065,0.00011868,-0.00000013,0.00000002,0.000
 04268,-0.00008698,0.00000023,0.00061482,0.00040541,0.00000134,0.000374
 10,0.00096991,0.00000021,0.10205219,-0.00027992,0.00012438,0.00000004,
 -0.00022590,-0.00012502,0.00000004,-0.00053706,0.00200110,-0.00000092,
 0.00092578,0.00045865,0.00000039,0.00112780,0.00034211,-0.00000025,0.0
 0414016,-0.00226055,-0.00000046,-0.09882260,-0.29649210,-0.00006397,-0
 .01257885,-0.01717173,-0.00000618,0.00068727,-0.00001961,0.00000007,0.
 00009575,-0.00000396,-0.00000001,-0.00006547,-0.00004304,0.00000013,-0
 .00036641,0.00055834,0.00000059,-0.00061949,-0.00095086,-0.00000031,0.
 10613455,0.31303824,-0.00000009,0.00000003,-0.00000203,-0.00000031,-0.
 00000016,-0.00030430,-0.00000325,-0.00000121,0.00779218,0.00000006,0.0
 0000051,-0.00104672,-0.00000206,-0.00000775,0.00340430,-0.00000162,-0.
 00000044,0.00737747,-0.00003071,-0.00006395,-0.03817466,0.00000013,0.0
 0000143,0.00334331,0.00000014,-0.00000005,0.00038404,0.00000003,-0.000
 00002,0.00002411,0.00000024,0.00000011,-0.00100535,0.00000107,0.000000
 81,-0.00419031,-0.00000004,0.00000006,0.00008791,0.00003531,0.00007005
 ,0.02625401,-0.00020613,-0.00002818,0.,-0.00013508,-0.00000617,0.00000
 002,0.00098085,0.00033246,0.00000038,0.00110280,-0.00244869,-0.0000018
 3,-0.00044926,0.00369699,-0.00000134,-0.00728633,0.00181690,-0.0000024
 0,-0.01353388,-0.00596238,-0.00000502,-0.33228829,-0.03622461,-0.00007
 473,-0.00002747,0.00001035,0.00000020,0.00011843,-0.00000675,0.,-0.000
 40600,0.00019297,-0.00000005,-0.00068269,-0.00034838,-0.00000021,0.000
 56937,-0.00043323,0.00000097,0.00056121,0.00042896,0.00000112,0.351719
 79,-0.00000470,0.00021931,0.00000006,-0.00008169,0.00029456,-0.0000000
 9,0.00037580,-0.00162287,-0.00000008,-0.00219972,-0.00528653,-0.000002
 44,0.00342150,-0.00369156,-0.00000081,-0.02920874,0.00189332,-0.000007
 24,0.02518097,0.00804120,0.00000657,-0.03631378,-0.06405354,-0.0000123
 9,0.00000248,-0.00042896,0.00000020,-0.00003698,0.00003092,0.00000002,
 -0.00133489,0.00002650,-0.00000033,0.00117426,0.00024624,0.00000040,0.
 00041130,0.00053364,0.00000077,-0.00039228,0.00054831,0.00000058,0.038
 99177,0.06324731,-0.00000016,0.00000006,0.00008019,-0.00000007,0.00000
 010,0.00015897,0.00000066,-0.00000023,-0.00060629,-0.00000247,-0.00000
 218,0.00746927,-0.00000177,-0.00000121,0.00747678,-0.00000668,0.000000
 61,0.00404517,0.00000015,-0.00000101,0.00402584,-0.00007471,-0.0000124
 0,-0.03924285,0.00000014,0.00000005,-0.00134374,0.00000004,-0.00000002
 ,-0.00002309,-0.00000019,0.00000009,-0.00014092,0.00000015,0.,-0.00011
 204,0.00000106,0.00000055,-0.00390764,0.00000097,0.00000078,-0.0039438
 2,0.00008291,0.00001479,0.02605479,-0.02412853,-0.01403819,-0.02760471
 ,0.00105464,0.00336404,0.00000897,-0.00047628,0.00027640,0.00094571,0.
 00010629,-0.00018923,0.00010864,-0.00007367,-0.00002584,-0.00006807,-0
 .00016402,-0.00005363,-0.00007489,0.00006020,0.00008640,0.00007702,-0.
 00008141,0.00010475,0.00000509,0.00186909,-0.00879594,-0.00133678,-0.0
 6372983,-0.02989455,-0.04931430,0.00000941,0.00002137,0.00001180,0.000
 10568,0.00017677,-0.00007464,-0.00002791,0.00000451,-0.00001350,-0.000
 01610,-0.00001578,-0.00000132,-0.00001601,0.00001089,-0.00001046,0.076
 53607,-0.00346115,0.00024890,0.00077689,-0.00046755,-0.00013580,0.0001
 5054,-0.00019397,-0.00006162,-0.00045744,-0.00002317,-0.00001543,0.000
 04681,-0.00000210,-0.00001791,0.00009988,-0.00000212,0.00001214,-0.000
 01789,-0.00007267,0.00001362,-0.00000092,0.00000020,-0.00002649,0.0000
 1227,0.00238019,0.00077869,0.00076103,-0.03495052,-0.11776116,-0.11230
 307,0.00003585,-0.00000986,0.00000352,0.00005328,0.00004603,-0.0000458
 6,-0.00000953,0.00000399,0.00000178,-0.00001139,-0.00000696,-0.0000075
 6,-0.00001023,0.00000069,0.00000008,0.03935594,0.11950737,-0.00095681,
 0.00484957,0.00814272,0.00159557,0.00105555,0.00012792,-0.00007764,0.0
 0029724,-0.00042462,0.00003188,-0.00005660,0.00001286,0.00004386,-0.00
 003503,0.00004432,-0.00005454,0.00000770,0.00000238,0.00004263,0.00002
 703,-0.00000498,0.00000745,0.00004104,0.00000486,0.00035758,-0.0036405
 3,0.00050394,-0.05718548,-0.11111106,-0.23214640,-0.00001540,0.0000111
 0,-0.00000647,0.00002655,0.00003455,-0.00001111,-0.00000495,-0.0000008
 5,-0.00000008,0.00000446,-0.00000014,-0.00000277,-0.00000199,0.0000039
 6,0.00000082,0.06062331,0.12029491,0.24105376,-0.02411907,-0.01405040,
 0.02760684,0.00105381,0.00336568,-0.00001023,-0.00047544,0.00027671,-0
 .00094694,0.00010625,-0.00018918,-0.00010864,-0.00007354,-0.00002579,0
 .00006822,-0.00016401,-0.00005357,0.00007485,0.00006019,0.00008634,-0.
 00007690,-0.00008138,0.00010470,-0.00000503,0.00186869,-0.00879718,0.0
 0133582,-0.06370284,-0.02988918,0.04925766,0.00000945,0.00002140,-0.00
 001181,0.00010568,0.00017669,0.00007469,-0.00002793,0.00000450,0.00001
 349,-0.00001612,-0.00001578,0.00000130,-0.00001602,0.00001088,0.000010
 42,0.00413048,0.00495219,-0.00597402,0.07650320,-0.00346320,0.00025063
 ,-0.00077959,-0.00046457,-0.00013722,-0.00015160,-0.00019428,-0.000061
 44,0.00045887,-0.00002324,-0.00001539,-0.00004708,-0.00000194,-0.00001
 797,-0.00009998,-0.00000212,0.00001213,0.00001797,-0.00007267,0.000013
 69,0.00000080,0.00000020,-0.00002648,-0.00001234,0.00238020,0.00077688
 ,-0.00076227,-0.03494791,-0.11786078,0.11236433,0.00003582,-0.00000986
 ,-0.00000351,0.00005327,0.00004603,0.00004590,-0.00000952,0.00000399,-
 0.00000178,-0.00001138,-0.00000696,0.00000757,-0.00001023,0.00000069,-
 0.00000008,0.00494581,0.00853762,-0.01409346,0.03935134,0.11961822,0.0
 0096469,-0.00484812,0.00813280,-0.00159605,-0.00105645,0.00012848,0.00
 007799,-0.00029757,-0.00042458,-0.00003185,0.00005656,0.00001276,-0.00
 004392,0.00003513,0.00004429,0.00005458,-0.00000769,0.00000246,-0.0000
 4270,-0.00002708,-0.00000502,-0.00000743,-0.00004109,0.00000488,-0.000
 35708,0.00364304,0.00050399,0.05712524,0.11116841,-0.23207490,0.000015
 42,-0.00001111,-0.00000647,-0.00002656,-0.00003458,-0.00001111,0.00000
 494,0.00000085,-0.00000008,-0.00000448,0.00000014,-0.00000276,0.000001
 99,-0.00000396,0.00000081,0.00596994,0.01410522,-0.01955939,-0.0605630
 8,-0.12035967,0.24097859,-0.02994286,0.03769643,0.00001387,0.00247794,
 0.00069722,-0.00000044,-0.00044906,0.00174137,0.00000054,-0.00044240,-
 0.00035193,-0.00000028,-0.00000079,0.00016433,-0.00000010,-0.00009896,
 0.00011400,0.00000005,0.00000285,-0.00006926,0.00000005,-0.00001803,0.
 00003614,-0.00000005,-0.00536794,-0.00682086,-0.00000116,-0.08027091,0
 .08688786,0.00002269,0.00003035,-0.00000324,0.00000002,-0.00005056,-0.
 00001840,0.00000005,-0.00006400,-0.00000463,-0.00000001,-0.00003198,-0
 .00001302,-0.00000002,-0.00000530,-0.00000708,0.,0.00484190,-0.0075732
 5,0.00153754,0.00483858,-0.00756559,-0.00154165,0.10455118,-0.00435768
 ,0.00845140,0.00000307,0.00204580,0.00064317,-0.00000059,0.00000824,0.
 00031358,0.00000015,-0.00002493,0.00000601,0.00000009,0.00003460,0.000
 01319,0.00000011,-0.00000654,0.00004555,-0.00000009,0.00004519,-0.0000
 3396,-0.00000005,0.00004160,0.00002044,0.00000006,-0.00310808,-0.00099
 437,-0.00000002,0.10087987,-0.29205137,-0.00006787,-0.00002968,0.00002
 674,0.,0.00001767,-0.00005963,-0.00000003,0.00000414,-0.00000470,0.,0.
 00001452,0.00000966,0.,0.00000846,0.00000081,0.,0.00466626,-0.01111381
 ,0.00231501,0.00467064,-0.01112378,-0.00232203,-0.10491009,0.30585107,
 0.00000316,-0.00000305,-0.00031872,-0.00000082,-0.00000008,0.00072545,
 0.00000006,-0.00000033,0.00020016,0.00000010,0.00000007,-0.00003974,0.
 00000002,-0.00000001,-0.00001714,0.00000002,-0.00000002,0.00000329,0.,
 0.,-0.00003584,0.,0.,-0.00000514,0.00000030,0.00000152,0.00020886,0.00
 002670,-0.00006595,-0.05123842,0.,0.,0.00001406,0.00000001,-0.00000003
 ,0.00007479,0.00000001,0.,-0.00000115,0.,0.,0.00000539,0.,0.,0.0000077
 3,0.01074819,-0.02342019,0.00226224,-0.01074665,0.02341590,0.00227527,
 -0.00003110,0.00007216,0.04587892\\-0.00005169,-0.00000286,-0.00003940
 ,0.00023798,0.00028014,-0.00005129,-0.00015345,-0.00010978,-0.00003792
 ,-0.00002616,0.00007629,-0.00000219,-0.00003958,-0.00005118,-0.0000029
 6,-0.00005621,0.00000464,0.00000226,-0.00001272,-0.00001451,0.00000240
 ,0.00001121,0.00000642,-0.00000015,-0.00001954,-0.00020116,0.00012924,
 -0.00001952,-0.00016555,0.00000169,0.00000835,-0.00000610,-0.00000023,
 0.00002030,0.00002743,-0.00000032,-0.00000064,-0.00001997,0.00000034,-
 0.00000529,0.00001397,0.00000017,0.00004208,-0.00000503,-0.00000019,0.
 00001480,0.00003328,0.00002412,0.00001723,0.00003353,-0.00002463,0.000
 03285,0.00010046,-0.00000095\\\@


 ... THE UNIVERSE IS NOT ONLY QUEERER THAN WE SUPPOSE,
 BUT QUEERER THAN WE CAN SUPPOSE ... 

                                   -- J. B. S. HALDANE
 Job cpu time:       0 days  1 hours 15 minutes  1.0 seconds.
 Elapsed time:       0 days  0 hours  4 minutes 42.6 seconds.
 File lengths (MBytes):  RWF=    132 Int=      0 D2E=      0 Chk=      8 Scr=      1
 Normal termination of Gaussian 16 at Tue Oct  7 07:05:31 2025.
