 Entering Gaussian System, Link 0=g16
 Input=MEBN0133.gjf
 Output=MEBN0133.log
 Initial command:
 /usr/local/g16/l1.exe "/dados_01/scratch/Gau-2137912.inp" -scrdir="/dados_01/scratch/"
 Entering Link 1 = /usr/local/g16/l1.exe PID=   2137915.
  
 Copyright (c) 1988-2017, Gaussian, Inc.  All Rights Reserved.
  
 This is part of the Gaussian(R) 16 program.  It is based on
 the Gaussian(R) 09 system (copyright 2009, Gaussian, Inc.),
 the Gaussian(R) 03 system (copyright 2003, Gaussian, Inc.),
 the Gaussian(R) 98 system (copyright 1998, Gaussian, Inc.),
 the Gaussian(R) 94 system (copyright 1995, Gaussian, Inc.),
 the Gaussian 92(TM) system (copyright 1992, Gaussian, Inc.),
 the Gaussian 90(TM) system (copyright 1990, Gaussian, Inc.),
 the Gaussian 88(TM) system (copyright 1988, Gaussian, Inc.),
 the Gaussian 86(TM) system (copyright 1986, Carnegie Mellon
 University), and the Gaussian 82(TM) system (copyright 1983,
 Carnegie Mellon University). Gaussian is a federally registered
 trademark of Gaussian, Inc.
  
 This software contains proprietary and confidential information,
 including trade secrets, belonging to Gaussian, Inc.
  
 This software is provided under written license and may be
 used, copied, transmitted, or stored only in accord with that
 written license.
  
 The following legend is applicable only to US Government
 contracts under FAR:
  
                    RESTRICTED RIGHTS LEGEND
  
 Use, reproduction and disclosure by the US Government is
 subject to restrictions as set forth in subparagraphs (a)
 and (c) of the Commercial Computer Software - Restricted
 Rights clause in FAR 52.227-19.
  
 Gaussian, Inc.
 340 Quinnipiac St., Bldg. 40, Wallingford CT 06492
  
  
 ---------------------------------------------------------------
 Warning -- This program may not be used in any manner that
 competes with the business of Gaussian, Inc. or will provide
 assistance to any competitor of Gaussian, Inc.  The licensee
 of this program is prohibited from giving any competitor of
 Gaussian, Inc. access to this program.  By using this program,
 the user acknowledges that Gaussian, Inc. is engaged in the
 business of creating and licensing software in the field of
 computational chemistry and represents and warrants to the
 licensee that it is not a competitor of Gaussian, Inc. and that
 it will not use this program in any manner prohibited above.
 ---------------------------------------------------------------
  

 Cite this work as:
 Gaussian 16, Revision B.01,
 M. J. Frisch, G. W. Trucks, H. B. Schlegel, G. E. Scuseria, 
 M. A. Robb, J. R. Cheeseman, G. Scalmani, V. Barone, 
 G. A. Petersson, H. Nakatsuji, X. Li, M. Caricato, A. V. Marenich, 
 J. Bloino, B. G. Janesko, R. Gomperts, B. Mennucci, H. P. Hratchian, 
 J. V. Ortiz, A. F. Izmaylov, J. L. Sonnenberg, D. Williams-Young, 
 F. Ding, F. Lipparini, F. Egidi, J. Goings, B. Peng, A. Petrone, 
 T. Henderson, D. Ranasinghe, V. G. Zakrzewski, J. Gao, N. Rega, 
 G. Zheng, W. Liang, M. Hada, M. Ehara, K. Toyota, R. Fukuda, 
 J. Hasegawa, M. Ishida, T. Nakajima, Y. Honda, O. Kitao, H. Nakai, 
 T. Vreven, K. Throssell, J. A. Montgomery, Jr., J. E. Peralta, 
 F. Ogliaro, M. J. Bearpark, J. J. Heyd, E. N. Brothers, K. N. Kudin, 
 V. N. Staroverov, T. A. Keith, R. Kobayashi, J. Normand, 
 K. Raghavachari, A. P. Rendell, J. C. Burant, S. S. Iyengar, 
 J. Tomasi, M. Cossi, J. M. Millam, M. Klene, C. Adamo, R. Cammi, 
 J. W. Ochterski, R. L. Martin, K. Morokuma, O. Farkas, 
 J. B. Foresman, and D. J. Fox, Gaussian, Inc., Wallingford CT, 2016.
 
 ******************************************
 Gaussian 16:  ES64L-G16RevB.01 20-Dec-2017
                20-Sep-2025 
 ******************************************
 %nprocs=16
 Will use up to   16 processors via shared memory.
 %mem=40GB
 %chk=MEBN0133.chk
 ----------------------------------------------------------------------
 # opt freq=noraman M08HX/6-311++G** scf=xqc Empiricaldispersion=pfd In
 t(Grid=ultraFine)
 ----------------------------------------------------------------------
 1/18=20,19=15,26=4,38=1/1,3;
 2/9=110,12=2,17=6,18=5,40=1/2;
 3/5=4,6=6,7=1111,11=2,25=1,30=1,71=1,74=-74,75=-5,124=11/1,2,3;
 4//1;
 5/5=2,8=3,13=1,38=5/2,8;
 6/7=2,8=2,9=2,10=2,28=1/1;
 7//1,2,3,16;
 1/18=20,19=15,26=4/3(2);
 2/9=110/2;
 99//99;
 2/9=110/2;
 3/5=4,6=6,7=1111,11=2,25=1,30=1,71=1,74=-74,75=-5,124=11/1,2,3;
 4/5=5,16=3,69=1/1;
 5/5=2,8=3,13=1,38=5/2,8;
 7//1,2,3,16;
 1/18=20,19=15,26=4/3(-5);
 2/9=110/2;
 6/7=2,8=2,9=2,10=2,19=2,28=1/1;
 99/9=1/99;
 --------
 MEBN0133
 --------
 Symbolic Z-matrix:
 Charge =  0 Multiplicity = 1
 O                     0.335     2.3531    0.9089 
 O                     1.8044    2.8466   -1.3587 
 C                     0.0109    0.6891   -1.3269 
 C                    -1.0486    0.7855   -0.2698 
 C                     1.4108    0.5524   -0.7719 
 C                    -2.2397    0.0471   -0.3622 
 C                     1.8499   -0.6571   -0.2253 
 C                    -3.2111    0.1703    0.6594 
 C                     3.1684   -0.7379    0.2824 
 C                    -0.8187    1.6332    0.8142 
 C                     2.2364    1.6686   -0.8259 
 C                    -2.4879   -0.8109   -1.4461 
 C                     1.021    -1.7893   -0.1671 
 C                    -2.9629    1.028     1.7436 
 C                     3.9976    0.3942    0.2239 
 C                    -1.7739    1.7541    1.819 
 C                     3.5332    1.589    -0.327 
 C                    -4.4023   -0.568     0.5672 
 C                     3.6193   -1.9485    0.8333 
 C                    -3.6771   -1.5366   -1.5215 
 C                     1.4855   -2.984     0.384 
 C                    -4.6324   -1.4155   -0.5168 
 C                     2.7821   -3.0634    0.8834 
 H                    -0.1027   -0.1273   -2.0416 
 H                    -0.0877    1.5808   -1.9603 
 H                    -1.8076   -0.9488   -2.2776 
 H                     0.0096   -1.8002   -0.5526 
 H                    -3.6957    1.138     2.5404 
 H                     5.0147    0.3547    0.6082 
 H                    -1.6078    2.4106    2.6691 
 H                     4.196     2.4497   -0.359 
 H                    -5.1631   -0.4887    1.341 
 H                     4.6292   -2.0335    1.2292 
 H                    -3.8597   -2.1939   -2.3669 
 H                     0.8359   -3.8539    0.42 
 H                    -5.5584   -1.98     -0.5767 
 H                     3.1433   -3.994     1.3113 
 H                     0.3167    2.8785    1.727 
 H                     2.5201    3.5027   -1.3034 
 

 GradGradGradGradGradGradGradGradGradGradGradGradGradGradGradGradGradGrad
 Berny optimization.
 Initialization pass.
                           ----------------------------
                           !    Initial Parameters    !
                           ! (Angstroms and Degrees)  !
 --------------------------                            --------------------------
 ! Name  Definition              Value          Derivative Info.                !
 --------------------------------------------------------------------------------
 ! R1    R(1,10)                 1.3632         estimate D2E/DX2                !
 ! R2    R(1,38)                 0.9725         estimate D2E/DX2                !
 ! R3    R(2,11)                 1.3632         estimate D2E/DX2                !
 ! R4    R(2,39)                 0.9725         estimate D2E/DX2                !
 ! R5    R(3,4)                  1.4998         estimate D2E/DX2                !
 ! R6    R(3,5)                  1.5121         estimate D2E/DX2                !
 ! R7    R(3,24)                 1.091          estimate D2E/DX2                !
 ! R8    R(3,25)                 1.0982         estimate D2E/DX2                !
 ! R9    R(4,6)                  1.4045         estimate D2E/DX2                !
 ! R10   R(4,10)                 1.3952         estimate D2E/DX2                !
 ! R11   R(5,7)                  1.398          estimate D2E/DX2                !
 ! R12   R(5,11)                 1.3894         estimate D2E/DX2                !
 ! R13   R(6,8)                  1.4151         estimate D2E/DX2                !
 ! R14   R(6,12)                 1.4045         estimate D2E/DX2                !
 ! R15   R(7,9)                  1.4152         estimate D2E/DX2                !
 ! R16   R(7,13)                 1.4044         estimate D2E/DX2                !
 ! R17   R(8,14)                 1.4045         estimate D2E/DX2                !
 ! R18   R(8,18)                 1.4045         estimate D2E/DX2                !
 ! R19   R(9,15)                 1.4045         estimate D2E/DX2                !
 ! R20   R(9,19)                 1.4044         estimate D2E/DX2                !
 ! R21   R(10,16)                1.3916         estimate D2E/DX2                !
 ! R22   R(11,17)                1.3917         estimate D2E/DX2                !
 ! R23   R(12,20)                1.3952         estimate D2E/DX2                !
 ! R24   R(12,26)                1.0832         estimate D2E/DX2                !
 ! R25   R(13,21)                1.3953         estimate D2E/DX2                !
 ! R26   R(13,27)                1.0824         estimate D2E/DX2                !
 ! R27   R(14,16)                1.3952         estimate D2E/DX2                !
 ! R28   R(14,28)                1.0881         estimate D2E/DX2                !
 ! R29   R(15,17)                1.3952         estimate D2E/DX2                !
 ! R30   R(15,29)                1.088          estimate D2E/DX2                !
 ! R31   R(16,30)                1.0869         estimate D2E/DX2                !
 ! R32   R(17,31)                1.0868         estimate D2E/DX2                !
 ! R33   R(18,22)                1.3951         estimate D2E/DX2                !
 ! R34   R(18,32)                1.0881         estimate D2E/DX2                !
 ! R35   R(19,23)                1.3951         estimate D2E/DX2                !
 ! R36   R(19,33)                1.0881         estimate D2E/DX2                !
 ! R37   R(20,22)                1.3916         estimate D2E/DX2                !
 ! R38   R(20,34)                1.0863         estimate D2E/DX2                !
 ! R39   R(21,23)                1.3917         estimate D2E/DX2                !
 ! R40   R(21,35)                1.0863         estimate D2E/DX2                !
 ! R41   R(22,36)                1.0862         estimate D2E/DX2                !
 ! R42   R(23,37)                1.0861         estimate D2E/DX2                !
 ! A1    A(10,1,38)            109.1379         estimate D2E/DX2                !
 ! A2    A(11,2,39)            109.121          estimate D2E/DX2                !
 ! A3    A(4,3,5)              113.649          estimate D2E/DX2                !
 ! A4    A(4,3,24)             115.8672         estimate D2E/DX2                !
 ! A5    A(4,3,25)             106.9124         estimate D2E/DX2                !
 ! A6    A(5,3,24)             105.6167         estimate D2E/DX2                !
 ! A7    A(5,3,25)             111.606          estimate D2E/DX2                !
 ! A8    A(24,3,25)            102.734          estimate D2E/DX2                !
 ! A9    A(3,4,6)              121.2625         estimate D2E/DX2                !
 ! A10   A(3,4,10)             118.0527         estimate D2E/DX2                !
 ! A11   A(6,4,10)             120.6847         estimate D2E/DX2                !
 ! A12   A(3,5,7)              120.8305         estimate D2E/DX2                !
 ! A13   A(3,5,11)             117.5957         estimate D2E/DX2                !
 ! A14   A(7,5,11)             121.5737         estimate D2E/DX2                !
 ! A15   A(4,6,8)              119.2689         estimate D2E/DX2                !
 ! A16   A(4,6,12)             121.4549         estimate D2E/DX2                !
 ! A17   A(8,6,12)             119.2762         estimate D2E/DX2                !
 ! A18   A(5,7,9)              118.8351         estimate D2E/DX2                !
 ! A19   A(5,7,13)             121.89           estimate D2E/DX2                !
 ! A20   A(9,7,13)             119.2748         estimate D2E/DX2                !
 ! A21   A(6,8,14)             119.284          estimate D2E/DX2                !
 ! A22   A(6,8,18)             119.2788         estimate D2E/DX2                !
 ! A23   A(14,8,18)            121.4372         estimate D2E/DX2                !
 ! A24   A(7,9,15)             119.2806         estimate D2E/DX2                !
 ! A25   A(7,9,19)             119.2795         estimate D2E/DX2                !
 ! A26   A(15,9,19)            121.4398         estimate D2E/DX2                !
 ! A27   A(1,10,4)             120.9514         estimate D2E/DX2                !
 ! A28   A(1,10,16)            119.0041         estimate D2E/DX2                !
 ! A29   A(4,10,16)            120.0445         estimate D2E/DX2                !
 ! A30   A(2,11,5)             121.4079         estimate D2E/DX2                !
 ! A31   A(2,11,17)            119.0016         estimate D2E/DX2                !
 ! A32   A(5,11,17)            119.5906         estimate D2E/DX2                !
 ! A33   A(6,12,20)            120.67           estimate D2E/DX2                !
 ! A34   A(6,12,26)            124.0019         estimate D2E/DX2                !
 ! A35   A(20,12,26)           115.3178         estimate D2E/DX2                !
 ! A36   A(7,13,21)            120.6752         estimate D2E/DX2                !
 ! A37   A(7,13,27)            123.014          estimate D2E/DX2                !
 ! A38   A(21,13,27)           116.3025         estimate D2E/DX2                !
 ! A39   A(8,14,16)            120.6712         estimate D2E/DX2                !
 ! A40   A(8,14,28)            120.5299         estimate D2E/DX2                !
 ! A41   A(16,14,28)           118.7989         estimate D2E/DX2                !
 ! A42   A(9,15,17)            120.6763         estimate D2E/DX2                !
 ! A43   A(9,15,29)            120.5265         estimate D2E/DX2                !
 ! A44   A(17,15,29)           118.7972         estimate D2E/DX2                !
 ! A45   A(10,16,14)           120.0467         estimate D2E/DX2                !
 ! A46   A(10,16,30)           120.8188         estimate D2E/DX2                !
 ! A47   A(14,16,30)           119.1345         estimate D2E/DX2                !
 ! A48   A(11,17,15)           120.0436         estimate D2E/DX2                !
 ! A49   A(11,17,31)           120.8246         estimate D2E/DX2                !
 ! A50   A(15,17,31)           119.1318         estimate D2E/DX2                !
 ! A51   A(8,18,22)            120.68           estimate D2E/DX2                !
 ! A52   A(8,18,32)            120.5339         estimate D2E/DX2                !
 ! A53   A(22,18,32)           118.7861         estimate D2E/DX2                !
 ! A54   A(9,19,23)            120.6822         estimate D2E/DX2                !
 ! A55   A(9,19,33)            120.5354         estimate D2E/DX2                !
 ! A56   A(23,19,33)           118.7824         estimate D2E/DX2                !
 ! A57   A(12,20,22)           120.0548         estimate D2E/DX2                !
 ! A58   A(12,20,34)           120.0039         estimate D2E/DX2                !
 ! A59   A(22,20,34)           119.9409         estimate D2E/DX2                !
 ! A60   A(13,21,23)           120.049          estimate D2E/DX2                !
 ! A61   A(13,21,35)           119.9801         estimate D2E/DX2                !
 ! A62   A(23,21,35)           119.9705         estimate D2E/DX2                !
 ! A63   A(18,22,20)           120.0402         estimate D2E/DX2                !
 ! A64   A(18,22,36)           119.9468         estimate D2E/DX2                !
 ! A65   A(20,22,36)           120.0129         estimate D2E/DX2                !
 ! A66   A(19,23,21)           120.0392         estimate D2E/DX2                !
 ! A67   A(19,23,37)           119.954          estimate D2E/DX2                !
 ! A68   A(21,23,37)           120.0067         estimate D2E/DX2                !
 ! D1    D(38,1,10,4)         -179.761          estimate D2E/DX2                !
 ! D2    D(38,1,10,16)           0.2653         estimate D2E/DX2                !
 ! D3    D(39,2,11,5)          179.836          estimate D2E/DX2                !
 ! D4    D(39,2,11,17)          -0.1588         estimate D2E/DX2                !
 ! D5    D(5,3,4,6)           -134.993          estimate D2E/DX2                !
 ! D6    D(5,3,4,10)            45.0177         estimate D2E/DX2                !
 ! D7    D(24,3,4,6)           -12.3822         estimate D2E/DX2                !
 ! D8    D(24,3,4,10)          167.6286         estimate D2E/DX2                !
 ! D9    D(25,3,4,6)           101.4132         estimate D2E/DX2                !
 ! D10   D(25,3,4,10)          -78.576          estimate D2E/DX2                !
 ! D11   D(4,3,5,7)             74.9935         estimate D2E/DX2                !
 ! D12   D(4,3,5,11)          -104.9712         estimate D2E/DX2                !
 ! D13   D(24,3,5,7)           -53.0999         estimate D2E/DX2                !
 ! D14   D(24,3,5,11)          126.9354         estimate D2E/DX2                !
 ! D15   D(25,3,5,7)          -164.0083         estimate D2E/DX2                !
 ! D16   D(25,3,5,11)           16.027          estimate D2E/DX2                !
 ! D17   D(3,4,6,8)           -179.994          estimate D2E/DX2                !
 ! D18   D(3,4,6,12)             0.0096         estimate D2E/DX2                !
 ! D19   D(10,4,6,8)            -0.005          estimate D2E/DX2                !
 ! D20   D(10,4,6,12)          179.9986         estimate D2E/DX2                !
 ! D21   D(3,4,10,1)             0.0353         estimate D2E/DX2                !
 ! D22   D(3,4,10,16)         -179.9912         estimate D2E/DX2                !
 ! D23   D(6,4,10,1)          -179.954          estimate D2E/DX2                !
 ! D24   D(6,4,10,16)            0.0194         estimate D2E/DX2                !
 ! D25   D(3,5,7,9)           -179.9882         estimate D2E/DX2                !
 ! D26   D(3,5,7,13)             0.0236         estimate D2E/DX2                !
 ! D27   D(11,5,7,9)            -0.025          estimate D2E/DX2                !
 ! D28   D(11,5,7,13)          179.9869         estimate D2E/DX2                !
 ! D29   D(3,5,11,2)             0.0154         estimate D2E/DX2                !
 ! D30   D(3,5,11,17)         -179.9898         estimate D2E/DX2                !
 ! D31   D(7,5,11,2)          -179.949          estimate D2E/DX2                !
 ! D32   D(7,5,11,17)            0.0458         estimate D2E/DX2                !
 ! D33   D(4,6,8,14)            -0.0141         estimate D2E/DX2                !
 ! D34   D(4,6,8,18)           179.9991         estimate D2E/DX2                !
 ! D35   D(12,6,8,14)          179.9824         estimate D2E/DX2                !
 ! D36   D(12,6,8,18)           -0.0043         estimate D2E/DX2                !
 ! D37   D(4,6,12,20)         -179.9865         estimate D2E/DX2                !
 ! D38   D(4,6,12,26)           -1.2119         estimate D2E/DX2                !
 ! D39   D(8,6,12,20)            0.0171         estimate D2E/DX2                !
 ! D40   D(8,6,12,26)          178.7917         estimate D2E/DX2                !
 ! D41   D(5,7,9,15)            -0.007          estimate D2E/DX2                !
 ! D42   D(5,7,9,19)          -179.9847         estimate D2E/DX2                !
 ! D43   D(13,7,9,15)          179.9814         estimate D2E/DX2                !
 ! D44   D(13,7,9,19)            0.0038         estimate D2E/DX2                !
 ! D45   D(5,7,13,21)          179.9972         estimate D2E/DX2                !
 ! D46   D(5,7,13,27)            1.0843         estimate D2E/DX2                !
 ! D47   D(9,7,13,21)            0.0091         estimate D2E/DX2                !
 ! D48   D(9,7,13,27)         -178.9038         estimate D2E/DX2                !
 ! D49   D(6,8,14,16)            0.0191         estimate D2E/DX2                !
 ! D50   D(6,8,14,28)         -179.9903         estimate D2E/DX2                !
 ! D51   D(18,8,14,16)        -179.9944         estimate D2E/DX2                !
 ! D52   D(18,8,14,28)          -0.0038         estimate D2E/DX2                !
 ! D53   D(6,8,18,22)           -0.0054         estimate D2E/DX2                !
 ! D54   D(6,8,18,32)         -179.9902         estimate D2E/DX2                !
 ! D55   D(14,8,18,22)        -179.9919         estimate D2E/DX2                !
 ! D56   D(14,8,18,32)           0.0233         estimate D2E/DX2                !
 ! D57   D(7,9,15,17)            0.018          estimate D2E/DX2                !
 ! D58   D(7,9,15,29)         -179.9971         estimate D2E/DX2                !
 ! D59   D(19,9,15,17)         179.9952         estimate D2E/DX2                !
 ! D60   D(19,9,15,29)          -0.02           estimate D2E/DX2                !
 ! D61   D(7,9,19,23)           -0.0232         estimate D2E/DX2                !
 ! D62   D(7,9,19,33)          179.9812         estimate D2E/DX2                !
 ! D63   D(15,9,19,23)         179.9996         estimate D2E/DX2                !
 ! D64   D(15,9,19,33)           0.004          estimate D2E/DX2                !
 ! D65   D(1,10,16,14)         179.9594         estimate D2E/DX2                !
 ! D66   D(1,10,16,30)          -0.0358         estimate D2E/DX2                !
 ! D67   D(4,10,16,14)          -0.0145         estimate D2E/DX2                !
 ! D68   D(4,10,16,30)         179.9903         estimate D2E/DX2                !
 ! D69   D(2,11,17,15)         179.9607         estimate D2E/DX2                !
 ! D70   D(2,11,17,31)          -0.0007         estimate D2E/DX2                !
 ! D71   D(5,11,17,15)          -0.0342         estimate D2E/DX2                !
 ! D72   D(5,11,17,31)        -179.9956         estimate D2E/DX2                !
 ! D73   D(6,12,20,22)          -0.0201         estimate D2E/DX2                !
 ! D74   D(6,12,20,34)         179.74           estimate D2E/DX2                !
 ! D75   D(26,12,20,22)       -178.8962         estimate D2E/DX2                !
 ! D76   D(26,12,20,34)          0.8639         estimate D2E/DX2                !
 ! D77   D(7,13,21,23)          -0.0027         estimate D2E/DX2                !
 ! D78   D(7,13,21,35)        -179.7776         estimate D2E/DX2                !
 ! D79   D(27,13,21,23)        178.9804         estimate D2E/DX2                !
 ! D80   D(27,13,21,35)         -0.7944         estimate D2E/DX2                !
 ! D81   D(8,14,16,10)          -0.0048         estimate D2E/DX2                !
 ! D82   D(8,14,16,30)         179.9905         estimate D2E/DX2                !
 ! D83   D(28,14,16,10)       -179.9956         estimate D2E/DX2                !
 ! D84   D(28,14,16,30)         -0.0003         estimate D2E/DX2                !
 ! D85   D(9,15,17,11)           0.0027         estimate D2E/DX2                !
 ! D86   D(9,15,17,31)         179.9647         estimate D2E/DX2                !
 ! D87   D(29,15,17,11)       -179.9825         estimate D2E/DX2                !
 ! D88   D(29,15,17,31)         -0.0204         estimate D2E/DX2                !
 ! D89   D(8,18,22,20)           0.0026         estimate D2E/DX2                !
 ! D90   D(8,18,22,36)        -179.9244         estimate D2E/DX2                !
 ! D91   D(32,18,22,20)        179.9877         estimate D2E/DX2                !
 ! D92   D(32,18,22,36)          0.0606         estimate D2E/DX2                !
 ! D93   D(9,19,23,21)           0.0299         estimate D2E/DX2                !
 ! D94   D(9,19,23,37)         179.9502         estimate D2E/DX2                !
 ! D95   D(33,19,23,21)       -179.9745         estimate D2E/DX2                !
 ! D96   D(33,19,23,37)         -0.0541         estimate D2E/DX2                !
 ! D97   D(12,20,22,18)          0.0101         estimate D2E/DX2                !
 ! D98   D(12,20,22,36)        179.9371         estimate D2E/DX2                !
 ! D99   D(34,20,22,18)       -179.7502         estimate D2E/DX2                !
 ! D100  D(34,20,22,36)          0.1768         estimate D2E/DX2                !
 ! D101  D(13,21,23,19)         -0.0167         estimate D2E/DX2                !
 ! D102  D(13,21,23,37)       -179.9371         estimate D2E/DX2                !
 ! D103  D(35,21,23,19)        179.7581         estimate D2E/DX2                !
 ! D104  D(35,21,23,37)         -0.1622         estimate D2E/DX2                !
 --------------------------------------------------------------------------------
 Trust Radius=3.00D-01 FncErr=1.00D-07 GrdErr=1.00D-06 EigMax=2.50D+02 EigMin=1.00D-04
 Number of steps in this run=    224 maximum allowed number of steps=    234.
 GradGradGradGradGradGradGradGradGradGradGradGradGradGradGradGradGradGrad

                          Input orientation:                          
 ---------------------------------------------------------------------
 Center     Atomic      Atomic             Coordinates (Angstroms)
 Number     Number       Type             X           Y           Z
 ---------------------------------------------------------------------
      1          8           0        0.335000    2.353100    0.908900
      2          8           0        1.804400    2.846600   -1.358700
      3          6           0        0.010900    0.689100   -1.326900
      4          6           0       -1.048600    0.785500   -0.269800
      5          6           0        1.410800    0.552400   -0.771900
      6          6           0       -2.239700    0.047100   -0.362200
      7          6           0        1.849900   -0.657100   -0.225300
      8          6           0       -3.211100    0.170300    0.659400
      9          6           0        3.168400   -0.737900    0.282400
     10          6           0       -0.818700    1.633200    0.814200
     11          6           0        2.236400    1.668600   -0.825900
     12          6           0       -2.487900   -0.810900   -1.446100
     13          6           0        1.021000   -1.789300   -0.167100
     14          6           0       -2.962900    1.028000    1.743600
     15          6           0        3.997600    0.394200    0.223900
     16          6           0       -1.773900    1.754100    1.819000
     17          6           0        3.533200    1.589000   -0.327000
     18          6           0       -4.402300   -0.568000    0.567200
     19          6           0        3.619300   -1.948500    0.833300
     20          6           0       -3.677100   -1.536600   -1.521500
     21          6           0        1.485500   -2.984000    0.384000
     22          6           0       -4.632400   -1.415500   -0.516800
     23          6           0        2.782100   -3.063400    0.883400
     24          1           0       -0.102700   -0.127300   -2.041600
     25          1           0       -0.087700    1.580800   -1.960300
     26          1           0       -1.807600   -0.948800   -2.277600
     27          1           0        0.009600   -1.800200   -0.552600
     28          1           0       -3.695700    1.138000    2.540400
     29          1           0        5.014700    0.354700    0.608200
     30          1           0       -1.607800    2.410600    2.669100
     31          1           0        4.196000    2.449700   -0.359000
     32          1           0       -5.163100   -0.488700    1.341000
     33          1           0        4.629200   -2.033500    1.229200
     34          1           0       -3.859700   -2.193900   -2.366900
     35          1           0        0.835900   -3.853900    0.420000
     36          1           0       -5.558400   -1.980000   -0.576700
     37          1           0        3.143300   -3.994000    1.311300
     38          1           0        0.316700    2.878500    1.727000
     39          1           0        2.520100    3.502700   -1.303400
 ---------------------------------------------------------------------
                    Distance matrix (angstroms):
                    1          2          3          4          5
     1  O    0.000000
     2  O    2.746760   0.000000
     3  C    2.805840   2.805790   0.000000
     4  C    2.400219   3.684216   1.499765   0.000000
     5  C    2.687928   2.400543   1.512095   2.520930   0.000000
     6  C    3.682718   5.018462   2.531405   1.404454   3.708009
     7  C    3.555648   3.682741   2.531343   3.237959   1.398024
     8  C    4.171533   6.032458   3.820448   2.432754   4.853512
     9  C    4.239686   4.171612   3.820469   4.517606   2.421896
    10  C    1.363176   3.615866   2.482714   1.395172   2.941855
    11  C    2.663342   1.363152   2.482594   3.446787   1.389401
    12  C    4.850328   5.639928   2.916884   2.450257   4.184853
    13  C    4.334495   4.850278   2.916831   3.305055   2.449752
    14  C    3.650857   5.971492   4.287926   2.788751   5.067858
    15  C    4.209650   3.650892   4.287858   5.085370   2.776361
    16  C    2.373719   4.908723   3.770467   2.413987   4.277752
    17  C    3.512802   2.373755   3.770440   4.652072   2.403551
    18  C    5.575984   7.341097   4.964297   3.712120   6.069647
    19  C    5.412588   5.575994   4.964267   5.520949   3.702518
    20  C    6.093731   7.020384   4.311955   3.723965   5.550905
    21  C    5.484871   6.093816   4.311993   4.588927   3.721265
    22  C    6.396095   7.765738   5.161961   4.212960   6.360658
    23  C    5.943687   6.396171   5.161999   5.551411   4.206482
    24  H    3.879358   3.598258   1.090967   2.206174   2.089213
    25  H    3.001238   2.354616   1.098201   2.100862   2.171498
    26  H    5.064293   5.319397   2.625545   2.759554   3.857309
    27  H    4.414948   5.046172   2.606944   2.808132   2.747031
    28  H    4.514953   6.955098   5.375538   3.876676   6.114785
    29  H    5.097413   4.514896   5.375356   6.141667   3.864176
    30  H    2.622228   5.296827   4.642388   3.404525   4.940176
    31  H    4.065000   2.622343   4.642371   5.503031   3.395228
    32  H    6.204163   8.182827   5.939291   4.598627   6.983151
    33  H    6.146951   6.204200   5.939267   6.513922   4.587960
    34  H    7.000113   7.648865   4.937088   4.601840   6.153402
    35  H    6.246341   6.999890   4.936713   5.054819   4.600719
    36  H    7.464243   8.838462   6.221254   5.299101   7.417608
    37  H    6.952277   7.464272   6.221210   6.550994   5.292545
    38  H    0.972454   3.425757   3.770052   3.198735   3.585010
    39  H    3.315194   0.972498   3.770011   4.602947   3.196453
                    6          7          8          9         10
     6  C    0.000000
     7  C    4.152044   0.000000
     8  C    1.415084   5.203941   0.000000
     9  C    5.502661   1.415178   6.454841   0.000000
    10  C    2.432873   3.667078   2.808490   4.669250   0.000000
    11  C    4.783278   2.432896   5.841770   2.808593   3.467682
    12  C    1.404495   4.508937   2.432879   5.914962   3.724085
    13  C    3.747345   1.404400   4.736434   2.432862   4.007612
    14  C    2.433018   5.466185   1.404543   6.545712   2.414052
    15  C    6.274385   2.433028   7.225313   1.404509   5.008026
    16  C    2.808639   4.808843   2.432825   5.744348   1.391635
    17  C    5.975372   2.808702   6.962132   2.432881   4.499258
    18  C    2.432894   6.302856   1.404473   7.577960   4.212894
    19  C    6.303929   2.432925   7.153595   1.404405   5.703050
    20  C    2.432735   5.744683   2.808378   7.124103   4.865550
    21  C    4.860195   2.432796   5.664230   2.808459   5.178122
    22  C    2.808579   6.533020   2.432756   7.870854   5.060676
    23  C    6.036986   2.808646   6.813621   2.432772   5.918497
    24  H    2.723521   2.718875   4.128694   4.058806   3.430395
    25  H    3.088246   3.431139   4.313695   4.583477   2.869661
    26  H    2.201655   4.204085   3.442117   5.599880   4.147755
    27  H    2.916868   2.191006   3.965441   3.435655   3.787144
    28  H    3.425651   6.451756   2.170125   7.465483   3.391477
    29  H    7.325477   3.425554   8.228026   2.169964   5.975412
    30  H    3.895409   5.453808   3.410045   6.198506   2.160482
    31  H    6.869551   3.895416   7.816517   3.410007   5.214431
    32  H    3.425528   7.187755   2.170061   8.402180   4.863516
    33  H    7.351411   3.425574   8.164050   2.170011   6.580010
    34  H    3.415451   6.288699   3.894691   7.650681   5.832133
    35  H    5.028812   3.415280   5.712242   3.894733   5.744681
    36  H    3.894729   7.533688   3.414901   8.856518   6.120014
    37  H    6.935977   3.894730   7.625272   3.414887   6.899995
    38  H    4.349341   4.320028   4.573783   4.826739   1.916536
    39  H    5.956738   4.349184   6.914053   4.573592   4.373425
                   11         12         13         14         15
    11  C    0.000000
    12  C    5.371367   0.000000
    13  C    3.724015   3.860762   0.000000
    14  C    5.834845   3.712326   5.240173   0.000000
    15  C    2.414125   6.804622   3.712237   7.152604   0.000000
    16  C    4.804718   4.213063   4.930694   1.395216   6.140349
    17  C    1.391735   6.577655   4.213031   6.841156   1.395244
    18  C    7.142510   2.788782   5.607402   2.450103   8.461797
    19  C    4.212929   6.617227   2.788782   7.281041   2.450045
    20  C    6.762148   1.395178   4.895958   4.212853   8.104038
    21  C    4.865634   4.884623   1.395270   6.142713   4.212898
    22  C    7.535757   2.414129   5.676526   3.723886   8.848760
    23  C    5.060763   6.186536   2.414198   7.105246   3.723893
    24  H    3.189761   2.551687   2.745669   4.882950   4.713482
    25  H    2.587666   3.427184   3.975218   4.721360   4.782094
    26  H    5.031118   1.083151   3.627896   4.627365   6.462314
    27  H    4.131090   2.831000   1.082432   4.701809   4.617628
    28  H    6.841295   4.598823   6.176318   1.088111   8.068846
    29  H    3.391449   7.865607   4.598637   8.086072   1.087998
    30  H    5.248187   5.299765   5.709096   2.145793   6.439362
    31  H    2.160589   7.515838   5.299677   7.595525   2.145744
    32  H    8.006372   3.876652   6.496847   2.702470   9.270698
    33  H    4.863586   7.700980   3.876647   8.202278   2.702457
    34  H    7.379432   2.154622   5.368804   5.299160   8.668776
    35  H    5.831953   4.877481   2.154419   6.325800   5.299166
    36  H    8.610069   3.398621   6.594895   4.600921   9.879014
    37  H    6.120060   7.031770   3.398606   7.917894   4.600931
    38  H    3.415612   5.616584   5.086454   3.765687   4.688292
    39  H    1.916355   6.611170   5.616382   6.743266   3.765425
                   16         17         18         19         20
    16  C    0.000000
    17  C    5.726944   0.000000
    18  C    3.723928   8.271904   0.000000
    19  C    6.615698   3.723925   8.143872   0.000000
    20  C    5.060614   7.948876   2.413870   7.678033   0.000000
    21  C    5.927268   5.060724   6.366852   2.413966   5.690196
    22  C    4.865526   8.702877   1.395084   8.378390   1.391648
    23  C    6.696327   4.865598   7.612004   1.395140   7.059457
    24  H    4.608341   4.370962   5.048427   5.043323   3.877237
    25  H    4.142030   3.972235   5.442552   5.831124   4.774361
    26  H    4.908048   6.226509   3.869155   6.334694   2.100530
    27  H    4.630163   4.894214   4.715626   3.869450   3.820996
    28  H    2.143201   7.789890   2.702450   8.120954   4.863421
    29  H    7.036295   2.143114   9.462185   2.702321   9.146585
    30  H    1.086854   6.006790   4.593394   7.049432   6.117476
    31  H    6.392750   1.086799   9.159428   4.593291   8.900994
    32  H    4.092104   9.095312   1.088059   8.917361   3.391194
    33  H    7.462806   4.092124   9.173545   1.088053   8.764010
    34  H    6.120378   8.551403   3.398074   8.138608   1.086318
    35  H    6.341760   6.120343   6.185268   3.398335   5.431986
    36  H    5.831408   9.770225   2.153792   9.285433   2.151404
    37  H    7.581376   5.831461   8.320291   2.153864   7.783407
    38  H    2.375573   4.028349   5.957555   5.916570   6.782057
    39  H    5.589760   2.375284   8.245566   5.957290   7.990457
                   21         22         23         24         25
    21  C    0.000000
    22  C    6.379681   0.000000
    23  C    1.391717   7.723402   0.000000
    24  H    4.070215   4.950016   5.049592   0.000000
    25  H    5.367318   5.631679   6.155565   1.710100   0.000000
    26  H    4.697942   3.361208   5.960604   1.907156   3.075323
    27  H    2.111133   4.658051   3.368164   2.242393   3.663639
    28  H    6.963173   4.091973   7.896791   5.958637   5.785329
    29  H    4.863377   9.872475   4.091900   5.782867   5.842517
    30  H    6.625096   5.825565   7.240485   5.558503   4.942734
    31  H    6.117512   9.638741   5.825542   5.286860   4.655023
    32  H    7.165630   2.142900   8.364489   6.097560   6.398523
    33  H    3.391263   9.444981   2.142907   6.059918   6.744273
    34  H    6.063239   2.150777   7.445400   4.300198   5.351791
    35  H    1.086279   6.060173   2.151122   4.563770   6.004567
    36  H    7.179658   1.086151   8.536369   5.945006   6.672496
    37  H    2.151345   8.393576   1.086085   6.060513   7.226418
    38  H    6.126879   6.925797   6.488146   4.838706   3.929853
    39  H    6.781961   8.715830   6.925634   4.538824   3.305426
                   26         27         28         29         30
    26  H    0.000000
    27  H    2.646266   0.000000
    28  H    5.579676   5.650568   0.000000
    29  H    7.521352   5.571542   8.956452   0.000000
    30  H    5.982920   5.543119   2.448551   7.234054   0.000000
    31  H    7.160589   5.968675   8.509172   2.448422   6.546374
    32  H    4.956343   5.662383   2.497594  10.238942   4.775976
    33  H    7.409900   4.956808   9.004533   2.497549   7.792529
    34  H    2.401950   4.291639   5.933805   9.700596   7.185664
    35  H    4.764950   2.417934   7.067571   5.933810   7.090422
    36  H    4.245578   5.570954   4.786219  10.892440   6.739423
    37  H    6.831168   4.255227   8.638289   4.786197   8.089220
    38  H    5.932765   5.213552   4.448631   5.449081   2.193213
    39  H    6.284418   5.914986   7.681326   4.448275   5.832066
                   31         32         33         34         35
    31  H    0.000000
    32  H    9.955749   0.000000
    33  H    4.775890   9.914033   0.000000
    34  H    9.512570   4.284283   9.220580   0.000000
    35  H    7.185575   6.939799   4.284599   5.707107   0.000000
    36  H   10.715314   2.461262  10.346561   2.477126   6.737357
    37  H    6.739388   9.015780   2.461341   8.112430   2.477527
    38  H    4.425408   6.443232   6.555395   7.741549   6.877720
    39  H    2.193021   9.052938   6.442971   8.618824   7.741202
                   36         37         38         39
    36  H    0.000000
    37  H    9.129092   0.000000
    38  H    7.964223   7.442696   0.000000
    39  H    9.790314   7.964016   3.798410   0.000000
 Stoichiometry    C21H16O2
 Framework group  C1[X(C21H16O2)]
 Deg. of freedom   111
 Full point group                 C1      NOp   1
 Largest Abelian subgroup         C1      NOp   1
 Largest concise Abelian subgroup C1      NOp   1
                         Standard orientation:                         
 ---------------------------------------------------------------------
 Center     Atomic      Atomic             Coordinates (Angstroms)
 Number     Number       Type             X           Y           Z
 ---------------------------------------------------------------------
      1          8           0       -0.393502   -2.301975    0.894088
      2          8           0       -1.876347   -2.728737   -1.378297
      3          6           0       -0.011728   -0.632743   -1.328670
      4          6           0        1.042912   -0.772589   -0.271565
      5          6           0       -1.406820   -0.453530   -0.773663
      6          6           0        2.258132   -0.073762   -0.357439
      7          6           0       -1.805763    0.765777   -0.218140
      8          6           0        3.223860   -0.237175    0.663898
      9          6           0       -3.121323    0.886762    0.289200
     10          6           0        0.783722   -1.620368    0.805745
     11          6           0       -2.269234   -1.541044   -0.836810
     12          6           0        2.535956    0.783697   -1.434557
     13          6           0       -0.939519    1.869140   -0.150668
     14          6           0        2.946044   -1.094337    1.741318
     15          6           0       -3.987863   -0.216489    0.221429
     16          6           0        1.733352   -1.780812    1.810288
     17          6           0       -3.563138   -1.421918   -0.338263
     18          6           0        4.439175    0.461548    0.578223
     19          6           0       -3.532027    2.107530    0.849022
     20          6           0        3.748835    1.469766   -1.503530
     21          6           0       -1.364348    3.074471    0.409222
     22          6           0        4.698559    1.309120   -0.499088
     23          6           0       -2.658059    3.193387    0.908268
     24          1           0        0.129817    0.184827   -2.037016
     25          1           0        0.057620   -1.522385   -1.968806
     26          1           0        1.861469    0.950614   -2.265473
     27          1           0        0.072059    1.849142   -0.535334
     28          1           0        3.673969   -1.234862    2.537788
     29          1           0       -5.003451   -0.145921    0.605276
     30          1           0        1.544551   -2.437853    2.655215
     31          1           0       -4.254320   -2.259696   -0.377336
     32          1           0        5.196134    0.350944    1.351949
     33          1           0       -4.538910    2.223242    1.244823
     34          1           0        3.954149    2.127019   -2.343739
     35          1           0       -0.686054    3.921855    0.452356
     36          1           0        5.642979    1.842769   -0.553988
     37          1           0       -2.988356    4.132258    1.343016
     38          1           0       -0.393591   -2.833917    1.708155
     39          1           0       -2.613643   -3.360933   -1.328545
 ---------------------------------------------------------------------
 Rotational constants (GHZ):           0.4422411           0.2039412           0.1670692
 Standard basis: 6-311++G(d,p) (5D, 7F)
 There are   641 symmetry adapted cartesian basis functions of A   symmetry.
 There are   618 symmetry adapted basis functions of A   symmetry.
   618 basis functions,   972 primitive gaussians,   641 cartesian basis functions
    79 alpha electrons       79 beta electrons
       nuclear repulsion energy      1820.1384864141 Hartrees.
 NAtoms=   39 NActive=   39 NUniq=   39 SFac= 1.00D+00 NAtFMM=   60 NAOKFM=F Big=F
 Integral buffers will be    131072 words long.
 Raffenetti 2 integral format.
 Two-electron integral symmetry is turned on.
 R6APFD:  NTU= -4 IXU= 1 FactS= 1.050
 Nuclear repulsion after empirical dispersion term =     1820.1008921897 Hartrees.
 One-electron integrals computed using PRISM.
 NBasis=   618 RedAO= T EigKep=  1.01D-06  NBF=   618
 NBsUse=   609 1.00D-06 EigRej=  8.08D-07 NBFU=   609
 ExpMin= 3.60D-02 ExpMax= 8.59D+03 ExpMxC= 1.30D+03 IAcc=3 IRadAn=         5 AccDes= 0.00D+00
 Harris functional with IExCor= 1009 and IRadAn=       5 diagonalized for initial guess.
 HarFok:  IExCor= 1009 AccDes= 0.00D+00 IRadAn=         5 IDoV= 1 UseB2=F ITyADJ=14
 ICtDFT=  3500011 ScaDFX=  1.000000  1.000000  1.000000  1.000000
 FoFCou: FMM=F IPFlag=           0 FMFlag=      100000 FMFlg1=           0
         NFxFlg=           0 DoJE=T BraDBF=F KetDBF=T FulRan=T
         wScrn=  0.000000 ICntrl=       500 IOpCl=  0 I1Cent=   200000004 NGrid=           0
         NMat0=    1 NMatS0=      1 NMatT0=    0 NMatD0=    1 NMtDS0=    0 NMtDT0=    0
 Petite list used in FoFCou.
 Requested convergence on RMS density matrix=1.00D-08 within  32 cycles.
 Requested convergence on MAX density matrix=1.00D-06.
 Requested convergence on             energy=1.00D-06.
 No special actions if energy rises.
 SCF Done:  E(RM08HX) =  -960.332707675     A.U. after   16 cycles
            NFock= 16  Conv=0.95D-08     -V/T= 2.0045
 QCSCF skips out because SCF is already converged.

 **********************************************************************

            Population analysis using the SCF Density.

 **********************************************************************

 Orbital symmetries:
       Occupied  (A) (A) (A) (A) (A) (A) (A) (A) (A) (A) (A) (A)
                 (A) (A) (A) (A) (A) (A) (A) (A) (A) (A) (A) (A)
                 (A) (A) (A) (A) (A) (A) (A) (A) (A) (A) (A) (A)
                 (A) (A) (A) (A) (A) (A) (A) (A) (A) (A) (A) (A)
                 (A) (A) (A) (A) (A) (A) (A) (A) (A) (A) (A) (A)
                 (A) (A) (A) (A) (A) (A) (A) (A) (A) (A) (A) (A)
                 (A) (A) (A) (A) (A) (A) (A)
       Virtual   (A) (A) (A) (A) (A) (A) (A) (A) (A) (A) (A) (A)
                 (A) (A) (A) (A) (A) (A) (A) (A) (A) (A) (A) (A)
                 (A) (A) (A) (A) (A) (A) (A) (A) (A) (A) (A) (A)
                 (A) (A) (A) (A) (A) (A) (A) (A) (A) (A) (A) (A)
                 (A) (A) (A) (A) (A) (A) (A) (A) (A) (A) (A) (A)
                 (A) (A) (A) (A) (A) (A) (A) (A) (A) (A) (A) (A)
                 (A) (A) (A) (A) (A) (A) (A) (A) (A) (A) (A) (A)
                 (A) (A) (A) (A) (A) (A) (A) (A) (A) (A) (A) (A)
                 (A) (A) (A) (A) (A) (A) (A) (A) (A) (A) (A) (A)
                 (A) (A) (A) (A) (A) (A) (A) (A) (A) (A) (A) (A)
                 (A) (A) (A) (A) (A) (A) (A) (A) (A) (A) (A) (A)
                 (A) (A) (A) (A) (A) (A) (A) (A) (A) (A) (A) (A)
                 (A) (A) (A) (A) (A) (A) (A) (A) (A) (A) (A) (A)
                 (A) (A) (A) (A) (A) (A) (A) (A) (A) (A) (A) (A)
                 (A) (A) (A) (A) (A) (A) (A) (A) (A) (A) (A) (A)
                 (A) (A) (A) (A) (A) (A) (A) (A) (A) (A) (A) (A)
                 (A) (A) (A) (A) (A) (A) (A) (A) (A) (A) (A) (A)
                 (A) (A) (A) (A) (A) (A) (A) (A) (A) (A) (A) (A)
                 (A) (A) (A) (A) (A) (A) (A) (A) (A) (A) (A) (A)
                 (A) (A) (A) (A) (A) (A) (A) (A) (A) (A) (A) (A)
                 (A) (A) (A) (A) (A) (A) (A) (A) (A) (A) (A) (A)
                 (A) (A) (A) (A) (A) (A) (A) (A) (A) (A) (A) (A)
                 (A) (A) (A) (A) (A) (A) (A) (A) (A) (A) (A) (A)
                 (A) (A) (A) (A) (A) (A) (A) (A) (A) (A) (A) (A)
                 (A) (A) (A) (A) (A) (A) (A) (A) (A) (A) (A) (A)
                 (A) (A) (A) (A) (A) (A) (A) (A) (A) (A) (A) (A)
                 (A) (A) (A) (A) (A) (A) (A) (A) (A) (A) (A) (A)
                 (A) (A) (A) (A) (A) (A) (A) (A) (A) (A) (A) (A)
                 (A) (A) (A) (A) (A) (A) (A) (A) (A) (A) (A) (A)
                 (A) (A) (A) (A) (A) (A) (A) (A) (A) (A) (A) (A)
                 (A) (A) (A) (A) (A) (A) (A) (A) (A) (A) (A) (A)
                 (A) (A) (A) (A) (A) (A) (A) (A) (A) (A) (A) (A)
                 (A) (A) (A) (A) (A) (A) (A) (A) (A) (A) (A) (A)
                 (A) (A) (A) (A) (A) (A) (A) (A) (A) (A) (A) (A)
                 (A) (A) (A) (A) (A) (A) (A) (A) (A) (A) (A) (A)
                 (A) (A) (A) (A) (A) (A) (A) (A) (A) (A) (A) (A)
                 (A) (A) (A) (A) (A) (A) (A) (A) (A) (A) (A) (A)
                 (A) (A) (A) (A) (A) (A) (A) (A) (A) (A) (A) (A)
                 (A) (A) (A) (A) (A) (A) (A) (A) (A) (A) (A) (A)
                 (A) (A) (A) (A) (A) (A) (A) (A) (A) (A) (A) (A)
                 (A) (A) (A) (A) (A) (A) (A) (A) (A) (A) (A) (A)
                 (A) (A) (A) (A) (A) (A) (A) (A) (A) (A) (A) (A)
                 (A) (A) (A) (A) (A) (A) (A) (A) (A) (A) (A) (A)
                 (A) (A) (A) (A) (A) (A) (A) (A) (A) (A) (A) (A)
                 (A) (A)
 The electronic state is 1-A.
 Alpha  occ. eigenvalues --  -19.64052 -19.63783 -10.59763 -10.59104 -10.54542
 Alpha  occ. eigenvalues --  -10.54305 -10.54157 -10.54138 -10.54132 -10.53880
 Alpha  occ. eigenvalues --  -10.53874 -10.53842 -10.53633 -10.53623 -10.53586
 Alpha  occ. eigenvalues --  -10.53495 -10.53349 -10.53287 -10.53278 -10.53028
 Alpha  occ. eigenvalues --  -10.52892 -10.52839 -10.52771  -1.18839  -1.18012
 Alpha  occ. eigenvalues --   -0.99856  -0.99064  -0.93594  -0.92790  -0.91019
 Alpha  occ. eigenvalues --   -0.87845  -0.84795  -0.84280  -0.83831  -0.81489
 Alpha  occ. eigenvalues --   -0.77495  -0.72425  -0.72129  -0.71405  -0.71128
 Alpha  occ. eigenvalues --   -0.68256  -0.65795  -0.63879  -0.63467  -0.59934
 Alpha  occ. eigenvalues --   -0.59242  -0.58255  -0.57554  -0.55335  -0.54903
 Alpha  occ. eigenvalues --   -0.52396  -0.51722  -0.51347  -0.50815  -0.50354
 Alpha  occ. eigenvalues --   -0.49680  -0.49572  -0.49169  -0.48195  -0.47180
 Alpha  occ. eigenvalues --   -0.46818  -0.46219  -0.45596  -0.44745  -0.43325
 Alpha  occ. eigenvalues --   -0.43001  -0.42447  -0.40979  -0.40288  -0.39728
 Alpha  occ. eigenvalues --   -0.38461  -0.38081  -0.37379  -0.34089  -0.33272
 Alpha  occ. eigenvalues --   -0.29481  -0.28875  -0.25423  -0.24866
 Alpha virt. eigenvalues --   -0.03577  -0.02963  -0.02594  -0.02429  -0.02157
 Alpha virt. eigenvalues --   -0.01619  -0.01191  -0.00449  -0.00144   0.00313
 Alpha virt. eigenvalues --    0.00766   0.01095   0.01449   0.01711   0.01994
 Alpha virt. eigenvalues --    0.02416   0.02624   0.03084   0.03595   0.03880
 Alpha virt. eigenvalues --    0.04364   0.04771   0.05090   0.05383   0.05823
 Alpha virt. eigenvalues --    0.06474   0.06881   0.07245   0.07485   0.07799
 Alpha virt. eigenvalues --    0.08328   0.08703   0.09045   0.09455   0.09899
 Alpha virt. eigenvalues --    0.10076   0.10448   0.10614   0.10916   0.11087
 Alpha virt. eigenvalues --    0.11241   0.11404   0.11508   0.11779   0.11963
 Alpha virt. eigenvalues --    0.12225   0.12432   0.12551   0.12611   0.12668
 Alpha virt. eigenvalues --    0.13078   0.13462   0.13592   0.13850   0.14302
 Alpha virt. eigenvalues --    0.14498   0.15063   0.15225   0.15546   0.16081
 Alpha virt. eigenvalues --    0.16478   0.16587   0.16988   0.17336   0.17455
 Alpha virt. eigenvalues --    0.17592   0.17792   0.18339   0.18407   0.18635
 Alpha virt. eigenvalues --    0.18938   0.19352   0.19902   0.20564   0.21103
 Alpha virt. eigenvalues --    0.21279   0.21914   0.21985   0.22728   0.23003
 Alpha virt. eigenvalues --    0.23102   0.23446   0.23800   0.23956   0.24402
 Alpha virt. eigenvalues --    0.24664   0.25338   0.25567   0.25637   0.25716
 Alpha virt. eigenvalues --    0.25950   0.26407   0.26817   0.26912   0.27012
 Alpha virt. eigenvalues --    0.27375   0.27763   0.27924   0.28309   0.28676
 Alpha virt. eigenvalues --    0.28859   0.29246   0.29662   0.29836   0.30318
 Alpha virt. eigenvalues --    0.30647   0.30905   0.31183   0.31550   0.31858
 Alpha virt. eigenvalues --    0.31935   0.32478   0.32868   0.33001   0.33537
 Alpha virt. eigenvalues --    0.33988   0.34235   0.34499   0.34792   0.35017
 Alpha virt. eigenvalues --    0.35678   0.35729   0.36409   0.36723   0.37181
 Alpha virt. eigenvalues --    0.37614   0.38317   0.38874   0.39202   0.40049
 Alpha virt. eigenvalues --    0.40527   0.40784   0.42367   0.42734   0.42908
 Alpha virt. eigenvalues --    0.43730   0.45069   0.45865   0.45948   0.47320
 Alpha virt. eigenvalues --    0.48019   0.49268   0.50518   0.52517   0.52684
 Alpha virt. eigenvalues --    0.52828   0.55284   0.55848   0.56136   0.57102
 Alpha virt. eigenvalues --    0.57809   0.58393   0.58581   0.58763   0.59536
 Alpha virt. eigenvalues --    0.60015   0.60379   0.60598   0.60810   0.61226
 Alpha virt. eigenvalues --    0.61494   0.61849   0.62464   0.62825   0.63451
 Alpha virt. eigenvalues --    0.63733   0.64269   0.64275   0.64823   0.65759
 Alpha virt. eigenvalues --    0.66009   0.66536   0.67308   0.67623   0.67804
 Alpha virt. eigenvalues --    0.68775   0.68856   0.69478   0.69791   0.70572
 Alpha virt. eigenvalues --    0.71593   0.72322   0.73163   0.73986   0.74250
 Alpha virt. eigenvalues --    0.74719   0.75077   0.76326   0.76596   0.76974
 Alpha virt. eigenvalues --    0.78222   0.78610   0.79109   0.79153   0.79719
 Alpha virt. eigenvalues --    0.80165   0.80767   0.81097   0.81629   0.82095
 Alpha virt. eigenvalues --    0.82617   0.83366   0.83578   0.84077   0.84721
 Alpha virt. eigenvalues --    0.85495   0.85616   0.86553   0.86953   0.87354
 Alpha virt. eigenvalues --    0.88450   0.88873   0.89208   0.89769   0.90483
 Alpha virt. eigenvalues --    0.91270   0.92035   0.92734   0.93769   0.94560
 Alpha virt. eigenvalues --    0.94992   0.95678   0.95975   0.96588   0.97085
 Alpha virt. eigenvalues --    0.97760   0.98185   0.98524   0.99243   0.99907
 Alpha virt. eigenvalues --    1.00677   1.01233   1.02089   1.03173   1.04260
 Alpha virt. eigenvalues --    1.05276   1.05834   1.07401   1.07993   1.08844
 Alpha virt. eigenvalues --    1.09411   1.09828   1.10449   1.10877   1.11361
 Alpha virt. eigenvalues --    1.11642   1.12059   1.12298   1.12664   1.13777
 Alpha virt. eigenvalues --    1.14725   1.15126   1.16108   1.18128   1.18357
 Alpha virt. eigenvalues --    1.19143   1.19519   1.20601   1.21851   1.22218
 Alpha virt. eigenvalues --    1.23083   1.23901   1.25528   1.26480   1.27738
 Alpha virt. eigenvalues --    1.28096   1.30388   1.34219   1.35953   1.37018
 Alpha virt. eigenvalues --    1.38443   1.38844   1.40132   1.40851   1.44179
 Alpha virt. eigenvalues --    1.45872   1.50017   1.50583   1.52437   1.52741
 Alpha virt. eigenvalues --    1.53148   1.53823   1.54391   1.55003   1.55334
 Alpha virt. eigenvalues --    1.56017   1.56337   1.56848   1.58132   1.59026
 Alpha virt. eigenvalues --    1.59769   1.59901   1.60943   1.61202   1.61778
 Alpha virt. eigenvalues --    1.63109   1.63173   1.64488   1.64786   1.66592
 Alpha virt. eigenvalues --    1.67054   1.67430   1.68605   1.68941   1.70148
 Alpha virt. eigenvalues --    1.70979   1.72091   1.72162   1.73572   1.75330
 Alpha virt. eigenvalues --    1.75972   1.76892   1.77396   1.77992   1.78797
 Alpha virt. eigenvalues --    1.78838   1.79443   1.80502   1.81504   1.82272
 Alpha virt. eigenvalues --    1.83518   1.83848   1.85255   1.87155   1.87732
 Alpha virt. eigenvalues --    1.88699   1.90116   1.91417   1.91828   1.93168
 Alpha virt. eigenvalues --    1.93579   1.94154   1.94747   1.95604   1.96227
 Alpha virt. eigenvalues --    1.96905   1.97291   1.97413   1.98064   1.99632
 Alpha virt. eigenvalues --    1.99864   2.01654   2.01971   2.02390   2.03121
 Alpha virt. eigenvalues --    2.03410   2.03593   2.04202   2.05182   2.05948
 Alpha virt. eigenvalues --    2.07122   2.08180   2.09826   2.10065   2.11221
 Alpha virt. eigenvalues --    2.11710   2.13226   2.13714   2.14376   2.16595
 Alpha virt. eigenvalues --    2.17377   2.18800   2.19391   2.20230   2.20568
 Alpha virt. eigenvalues --    2.23290   2.23583   2.24939   2.25659   2.26737
 Alpha virt. eigenvalues --    2.28333   2.29904   2.33154   2.36176   2.39248
 Alpha virt. eigenvalues --    2.39859   2.42507   2.44384   2.45697   2.46026
 Alpha virt. eigenvalues --    2.46413   2.47204   2.49009   2.50159   2.50652
 Alpha virt. eigenvalues --    2.51313   2.51942   2.52510   2.55873   2.57695
 Alpha virt. eigenvalues --    2.58244   2.62172   2.63437   2.64544   2.66572
 Alpha virt. eigenvalues --    2.68860   2.69840   2.70082   2.70591   2.70959
 Alpha virt. eigenvalues --    2.71908   2.72308   2.72618   2.73119   2.74147
 Alpha virt. eigenvalues --    2.74858   2.75427   2.75575   2.76373   2.77155
 Alpha virt. eigenvalues --    2.77423   2.78208   2.78869   2.80314   2.80854
 Alpha virt. eigenvalues --    2.81998   2.82471   2.83325   2.83724   2.86294
 Alpha virt. eigenvalues --    2.86593   2.87689   2.88798   2.90925   2.91917
 Alpha virt. eigenvalues --    2.93065   2.93356   2.95014   2.95472   2.96720
 Alpha virt. eigenvalues --    2.98620   2.99035   3.00244   3.01170   3.01725
 Alpha virt. eigenvalues --    3.02900   3.03880   3.07333   3.08600   3.09942
 Alpha virt. eigenvalues --    3.16659   3.17687   3.18025   3.18666   3.19621
 Alpha virt. eigenvalues --    3.21095   3.22486   3.25135   3.27879   3.28947
 Alpha virt. eigenvalues --    3.29861   3.32432   3.33135   3.34860   3.35576
 Alpha virt. eigenvalues --    3.37931   3.45151   3.46371   3.46508   3.47952
 Alpha virt. eigenvalues --    3.49507   3.50517   3.51603   3.52003   3.53358
 Alpha virt. eigenvalues --    3.54786   3.56360   3.57422   3.60487   3.61414
 Alpha virt. eigenvalues --    3.62382   3.62705   3.69892   3.71447   3.72936
 Alpha virt. eigenvalues --    3.73766   3.83341   3.84361   3.86763   3.97109
 Alpha virt. eigenvalues --    3.97561   3.98876   3.99762   4.09258   4.09813
 Alpha virt. eigenvalues --    4.12862   4.13632   4.14899   4.15431   4.24266
 Alpha virt. eigenvalues --    4.27440   4.28949   4.31240   4.40935   4.43786
 Alpha virt. eigenvalues --    4.53284   4.57671   4.92425   4.93451   4.95513
 Alpha virt. eigenvalues --    4.96824   5.17250   5.22172   5.63529   5.68119
 Alpha virt. eigenvalues --    5.87516   5.88582  23.63316  23.63951  23.88578
 Alpha virt. eigenvalues --   23.89423  23.99208  24.01501  24.02321  24.05924
 Alpha virt. eigenvalues --   24.06787  24.07682  24.08482  24.12668  24.13064
 Alpha virt. eigenvalues --   24.14040  24.15004  24.15620  24.18884  24.22088
 Alpha virt. eigenvalues --   24.23634  24.24214  24.25122  49.99419  50.01129
          Condensed to atoms (all electrons):
               1          2          3          4          5          6
     1  O    8.177549  -0.046286   0.056865  -0.213302  -0.172535   0.020929
     2  O   -0.046286   7.882423   0.164802  -0.069790  -0.547448  -0.013000
     3  C    0.056865   0.164802  35.906081  -3.357957  -5.595343   1.095097
     4  C   -0.213302  -0.069790  -3.357957  29.901287  -1.167892   7.573375
     5  C   -0.172535  -0.547448  -5.595343  -1.167892  27.992535  -0.987205
     6  C    0.020929  -0.013000   1.095097   7.573375  -0.987205  16.841274
     7  C   -0.062663  -0.052587  -3.066759   0.658240   5.505294  -0.003432
     8  C    0.020457   0.025234  -8.344921  -2.605482  -1.172156  -1.757234
     9  C    0.192003   0.001759  -3.308747  -3.216159  -5.686765  -0.639131
    10  C    0.346765   0.015853 -10.647531  -0.717176  -1.280784  -1.108125
    11  C   -0.114458   0.553383   0.353934  -2.368910  -3.250163  -0.498002
    12  C    0.024593  -0.019968   4.666097  -5.996172  -0.211111  -3.462736
    13  C    0.028452   0.019308   1.346202  -2.008352  -2.547055  -0.146999
    14  C    0.010340   0.015038  -0.094309   4.309843   0.294740   0.955870
    15  C   -0.180623  -0.033814  -2.404158   2.941338   7.074168   0.135640
    16  C   -0.215160  -0.004172  -1.551078  -7.272152   1.071668  -0.550734
    17  C    0.035870   0.144163   1.213000  -2.927618  -9.896850  -0.311788
    18  C   -0.010069   0.002893  -0.088958  -3.846444  -0.338602  -7.177967
    19  C    0.026795  -0.026691   0.009433  -1.130433  -4.380878  -0.129319
    20  C    0.002172  -0.012192   1.346752  -3.413035   0.783612  -5.903633
    21  C   -0.001894   0.010707  -2.360851   0.533844  -0.521264  -0.133357
    22  C   -0.001641   0.000721  -0.681363   0.702885  -0.035915   2.364534
    23  C    0.014950  -0.003260   0.288482  -0.024007   0.633306  -0.013918
    24  H   -0.015662   0.005578   0.565217  -1.514247   0.496427  -0.586931
    25  H    0.007189  -0.022986   0.470890   0.505666  -0.141155   0.106858
    26  H    0.002955   0.003069   0.092076   0.142744  -0.202565   0.109362
    27  H   -0.005534   0.000250   0.067341   0.268707  -0.180850   0.156483
    28  H   -0.000168   0.000107  -0.009364   0.123718   0.000607   0.080583
    29  H   -0.002370  -0.000799  -0.061488   0.040836   0.142552   0.001851
    30  H   -0.012766  -0.001381   0.054610   0.004687   0.025362   0.016282
    31  H    0.003946  -0.008687   0.016590  -0.015415  -0.054185  -0.003655
    32  H   -0.000177  -0.000015   0.022753  -0.067950  -0.000334  -0.139169
    33  H   -0.000630  -0.000281   0.010849  -0.019914  -0.091057  -0.001687
    34  H   -0.000012  -0.000084  -0.010397  -0.013617   0.015839   0.000776
    35  H   -0.000216   0.000019  -0.043352  -0.007712   0.009571  -0.005685
    36  H    0.000004   0.000005  -0.011664   0.008961  -0.000681   0.045545
    37  H    0.000218   0.000016  -0.002501   0.003372   0.013005   0.000950
    38  H    0.164675  -0.009579  -0.049763   0.088147  -0.065684  -0.018709
    39  H   -0.001443   0.192344  -0.046466   0.032977   0.240987   0.000668
               7          8          9         10         11         12
     1  O   -0.062663   0.020457   0.192003   0.346765  -0.114458   0.024593
     2  O   -0.052587   0.025234   0.001759   0.015853   0.553383  -0.019968
     3  C   -3.066759  -8.344921  -3.308747 -10.647531   0.353934   4.666097
     4  C    0.658240  -2.605482  -3.216159  -0.717176  -2.368910  -5.996172
     5  C    5.505294  -1.172156  -5.686765  -1.280784  -3.250163  -0.211111
     6  C   -0.003432  -1.757234  -0.639131  -1.108125  -0.498002  -3.462736
     7  C   16.315234   0.388533   1.700285   0.781474   0.756565  -0.669440
     8  C    0.388533  24.496653   0.159205   8.972961  -0.222450  -3.231255
     9  C    1.700285   0.159205  25.512783   1.791174   2.425970  -0.539461
    10  C    0.781474   8.972961   1.791174  21.208319   1.003806  -4.205740
    11  C    0.756565  -0.222450   2.425970   1.003806  16.586159  -0.428170
    12  C   -0.669440  -3.231255  -0.539461  -4.205740  -0.428170  18.884442
    13  C   -3.682049  -0.338850  -1.595109   0.341864  -1.831354   0.217163
    14  C    0.258191  -5.811089  -0.044799  -4.847314   0.094513  -1.214347
    15  C   -2.808095   0.082410 -12.994495  -0.979361  -5.264435  -0.035780
    16  C    0.140139  -2.511206   0.636805  -3.821510  -0.010379   1.565191
    17  C   -1.487898  -0.172589   3.430927   0.656532   0.298706   0.033046
    18  C   -0.123911  -1.599385  -0.031314  -0.045850   0.021689   4.906598
    19  C   -7.761762   0.060466  -3.529429   0.665752  -1.112778  -0.106688
    20  C   -0.301109  -1.202339  -0.101839  -2.031300  -0.025552  -2.814140
    21  C   -5.501768   0.445111   2.162592   0.054743  -0.972069   0.147242
    22  C    0.117840   0.366749   0.008327   0.905026   0.004095  -2.388886
    23  C    4.466124  -0.074424  -0.305490  -0.148034   0.527827   0.078718
    24  H   -0.004736  -0.440299   0.118056  -0.360791   0.096242   0.499975
    25  H   -0.005226   0.029926  -0.063377  -0.060321  -0.157581  -0.089274
    26  H   -0.068605   0.161498  -0.020111   0.068721   0.015214   0.618740
    27  H    0.186133   0.117293  -0.162813   0.124258  -0.109354  -0.088681
    28  H    0.003970  -0.036754  -0.000349   0.036045   0.002735  -0.078680
    29  H    0.044522   0.001053  -0.182306  -0.011729   0.022800  -0.000798
    30  H   -0.001227  -0.122777  -0.006207  -0.350428  -0.011750   0.032322
    31  H   -0.027134  -0.000843  -0.031566  -0.003664  -0.337214  -0.000024
    32  H   -0.003519  -0.187227  -0.000299  -0.019719   0.000842   0.137625
    33  H   -0.124040   0.000355  -0.062202   0.011760   0.002784  -0.001498
    34  H   -0.001795   0.019492   0.002134  -0.007433  -0.002664  -0.105991
    35  H   -0.015567   0.004121   0.072408   0.006611   0.004818  -0.005831
    36  H    0.001648   0.023745  -0.000066   0.011091   0.000017  -0.031822
    37  H    0.056401   0.000535   0.050544  -0.000642   0.005597  -0.000097
    38  H   -0.012059   0.065455   0.013061   0.339476   0.001736  -0.028195
    39  H    0.035943  -0.002350  -0.003632  -0.007355   0.280947   0.001235
              13         14         15         16         17         18
     1  O    0.028452   0.010340  -0.180623  -0.215160   0.035870  -0.010069
     2  O    0.019308   0.015038  -0.033814  -0.004172   0.144163   0.002893
     3  C    1.346202  -0.094309  -2.404158  -1.551078   1.213000  -0.088958
     4  C   -2.008352   4.309843   2.941338  -7.272152  -2.927618  -3.846444
     5  C   -2.547055   0.294740   7.074168   1.071668  -9.896850  -0.338602
     6  C   -0.146999   0.955870   0.135640  -0.550734  -0.311788  -7.177967
     7  C   -3.682049   0.258191  -2.808095   0.140139  -1.487898  -0.123911
     8  C   -0.338850  -5.811089   0.082410  -2.511206  -0.172589  -1.599385
     9  C   -1.595109  -0.044799 -12.994495   0.636805   3.430927  -0.031314
    10  C    0.341864  -4.847314  -0.979361  -3.821510   0.656532  -0.045850
    11  C   -1.831354   0.094513  -5.264435  -0.010379   0.298706   0.021689
    12  C    0.217163  -1.214347  -0.035780   1.565191   0.033046   4.906598
    13  C   16.518876  -0.203154  -2.063181   0.362921  -0.060111  -0.060178
    14  C   -0.203154  15.366139   0.187038  -0.972229  -0.052665  -1.726319
    15  C   -2.063181   0.187038  27.345465  -0.347077  -4.008084   0.008194
    16  C    0.362921  -0.972229  -0.347077  18.529167   0.175390   0.660916
    17  C   -0.060111  -0.052665  -4.008084   0.175390  18.238839  -0.008191
    18  C   -0.060178  -1.726319   0.008194   0.660916  -0.008191  17.490219
    19  C    7.466539  -0.095526  -2.241329   0.210590   1.624789   0.005928
    20  C    0.274511   0.014436  -0.051889   1.646701   0.050018  -1.230447
    21  C   -3.960164   0.052827   3.739191   0.037529  -0.326357   0.137551
    22  C   -0.064866  -0.251475   0.008191  -1.484161  -0.004648  -1.807735
    23  C   -1.958091   0.006024  -2.262910  -0.045248  -0.352540  -0.010215
    24  H    0.244663  -0.017767  -0.079499   0.210641   0.144465  -0.062830
    25  H   -0.023490   0.029207   0.030216  -0.080200  -0.167335  -0.001670
    26  H   -0.028495  -0.073207  -0.002462  -0.058153   0.006200   0.231877
    27  H    0.635602  -0.005723  -0.069540  -0.006554  -0.084606  -0.030286
    28  H   -0.003554   0.428626   0.002243  -0.142714   0.000062  -0.109553
    29  H   -0.090084   0.002545   0.665816  -0.003599  -0.173524   0.000039
    30  H    0.002089   0.075731  -0.000862   0.556391  -0.009532   0.042771
    31  H   -0.012177   0.001156   0.128515  -0.003186   0.584752  -0.000094
    32  H    0.001965  -0.016707  -0.000567   0.092949   0.000357   0.635892
    33  H    0.180419  -0.001010  -0.162175   0.004814   0.087673   0.000000
    34  H    0.009075  -0.012609  -0.000399   0.015701  -0.000008  -0.050724
    35  H   -0.122282   0.000871   0.016104   0.002642   0.003297   0.001813
    36  H   -0.000885   0.001922   0.000031  -0.010910  -0.000003  -0.059488
    37  H   -0.111571  -0.000118   0.010318  -0.000768  -0.005342  -0.000221
    38  H    0.014331  -0.035647  -0.013558  -0.299524   0.036247  -0.007081
    39  H   -0.000803  -0.001994  -0.048640   0.005954  -0.438177  -0.000229
              19         20         21         22         23         24
     1  O    0.026795   0.002172  -0.001894  -0.001641   0.014950  -0.015662
     2  O   -0.026691  -0.012192   0.010707   0.000721  -0.003260   0.005578
     3  C    0.009433   1.346752  -2.360851  -0.681363   0.288482   0.565217
     4  C   -1.130433  -3.413035   0.533844   0.702885  -0.024007  -1.514247
     5  C   -4.380878   0.783612  -0.521264  -0.035915   0.633306   0.496427
     6  C   -0.129319  -5.903633  -0.133357   2.364534  -0.013918  -0.586931
     7  C   -7.761762  -0.301109  -5.501768   0.117840   4.466124  -0.004736
     8  C    0.060466  -1.202339   0.445111   0.366749  -0.074424  -0.440299
     9  C   -3.529429  -0.101839   2.162592   0.008327  -0.305490   0.118056
    10  C    0.665752  -2.031300   0.054743   0.905026  -0.148034  -0.360791
    11  C   -1.112778  -0.025552  -0.972069   0.004095   0.527827   0.096242
    12  C   -0.106688  -2.814140   0.147242  -2.388886   0.078718   0.499975
    13  C    7.466539   0.274511  -3.960164  -0.064866  -1.958091   0.244663
    14  C   -0.095526   0.014436   0.052827  -0.251475   0.006024  -0.017767
    15  C   -2.241329  -0.051889   3.739191   0.008191  -2.262910  -0.079499
    16  C    0.210590   1.646701   0.037529  -1.484161  -0.045248   0.210641
    17  C    1.624789   0.050018  -0.326357  -0.004648  -0.352540   0.144465
    18  C    0.005928  -1.230447   0.137551  -1.807735  -0.010215  -0.062830
    19  C   20.829101  -0.001886  -1.955671  -0.011799  -2.806209   0.002644
    20  C   -0.001886  20.433451  -0.163728  -1.673064   0.045227   0.817026
    21  C   -1.955671  -0.163728  17.706459  -0.050197  -2.668853   0.008609
    22  C   -0.011799  -1.673064  -0.050197  10.645691   0.003355  -0.029827
    23  C   -2.806209   0.045227  -2.668853   0.003355  10.837314  -0.000320
    24  H    0.002644   0.817026   0.008609  -0.029827  -0.000320   1.033156
    25  H    0.017887  -0.091739  -0.055216   0.003014   0.001542  -0.109790
    26  H    0.001322  -0.672549   0.068566  -0.053933   0.002750  -0.152820
    27  H    0.155923  -0.092950  -0.577091   0.056782  -0.008491  -0.093724
    28  H   -0.001597  -0.031064  -0.000255   0.081432   0.000276  -0.001476
    29  H   -0.142208  -0.000548   0.042462   0.000114   0.039862  -0.001526
    30  H   -0.000824   0.015020  -0.001507  -0.012262  -0.000225   0.002345
    31  H    0.035854   0.000128  -0.004222   0.000055   0.006782   0.001396
    32  H    0.000470   0.015863   0.000436  -0.173670  -0.000057   0.000624
    33  H    0.706561   0.000148  -0.057442  -0.000130  -0.165470   0.001643
    34  H    0.001269   0.518555   0.002905  -0.089243  -0.001350   0.016404
    35  H   -0.058223  -0.008625   0.520939  -0.002633  -0.083345   0.005622
    36  H   -0.000212  -0.086453  -0.001353   0.433773   0.000129  -0.001045
    37  H   -0.076280  -0.000010  -0.021315   0.000272   0.402710  -0.001499
    38  H    0.010747  -0.005458   0.005951   0.002808  -0.001117  -0.000877
    39  H   -0.012640   0.002426  -0.000664  -0.000247   0.000799  -0.003626
              25         26         27         28         29         30
     1  O    0.007189   0.002955  -0.005534  -0.000168  -0.002370  -0.012766
     2  O   -0.022986   0.003069   0.000250   0.000107  -0.000799  -0.001381
     3  C    0.470890   0.092076   0.067341  -0.009364  -0.061488   0.054610
     4  C    0.505666   0.142744   0.268707   0.123718   0.040836   0.004687
     5  C   -0.141155  -0.202565  -0.180850   0.000607   0.142552   0.025362
     6  C    0.106858   0.109362   0.156483   0.080583   0.001851   0.016282
     7  C   -0.005226  -0.068605   0.186133   0.003970   0.044522  -0.001227
     8  C    0.029926   0.161498   0.117293  -0.036754   0.001053  -0.122777
     9  C   -0.063377  -0.020111  -0.162813  -0.000349  -0.182306  -0.006207
    10  C   -0.060321   0.068721   0.124258   0.036045  -0.011729  -0.350428
    11  C   -0.157581   0.015214  -0.109354   0.002735   0.022800  -0.011750
    12  C   -0.089274   0.618740  -0.088681  -0.078680  -0.000798   0.032322
    13  C   -0.023490  -0.028495   0.635602  -0.003554  -0.090084   0.002089
    14  C    0.029207  -0.073207  -0.005723   0.428626   0.002545   0.075731
    15  C    0.030216  -0.002462  -0.069540   0.002243   0.665816  -0.000862
    16  C   -0.080200  -0.058153  -0.006554  -0.142714  -0.003599   0.556391
    17  C   -0.167335   0.006200  -0.084606   0.000062  -0.173524  -0.009532
    18  C   -0.001670   0.231877  -0.030286  -0.109553   0.000039   0.042771
    19  C    0.017887   0.001322   0.155923  -0.001597  -0.142208  -0.000824
    20  C   -0.091739  -0.672549  -0.092950  -0.031064  -0.000548   0.015020
    21  C   -0.055216   0.068566  -0.577091  -0.000255   0.042462  -0.001507
    22  C    0.003014  -0.053933   0.056782   0.081432   0.000114  -0.012262
    23  C    0.001542   0.002750  -0.008491   0.000276   0.039862  -0.000225
    24  H   -0.109790  -0.152820  -0.093724  -0.001476  -0.001526   0.002345
    25  H    0.450574   0.006276   0.028018   0.000168   0.000045   0.001113
    26  H    0.006276   0.597993  -0.006733  -0.000309  -0.000037  -0.000495
    27  H    0.028018  -0.006733   0.825015   0.000054  -0.000639   0.000308
    28  H    0.000168  -0.000309   0.000054   0.412253   0.000038  -0.005442
    29  H    0.000045  -0.000037  -0.000639   0.000038   0.420913  -0.000042
    30  H    0.001113  -0.000495   0.000308  -0.005442  -0.000042   0.473117
    31  H   -0.000945   0.000087  -0.001454  -0.000029  -0.003803   0.000007
    32  H   -0.000102   0.003289  -0.001471  -0.005531  -0.000009   0.001891
    33  H   -0.000157  -0.000245   0.003283  -0.000022  -0.007527   0.000000
    34  H   -0.001110  -0.029831  -0.006661  -0.000526  -0.000008   0.000059
    35  H   -0.001616  -0.000840  -0.039801  -0.000053   0.000345  -0.000058
    36  H   -0.000059   0.000899   0.000716   0.001915   0.000001  -0.000301
    37  H   -0.000084   0.000337   0.001659   0.000010   0.001874  -0.000033
    38  H   -0.002837  -0.000024  -0.000572   0.001021  -0.000419  -0.007189
    39  H    0.002507  -0.000098   0.000095  -0.000011   0.001489   0.000275
              31         32         33         34         35         36
     1  O    0.003946  -0.000177  -0.000630  -0.000012  -0.000216   0.000004
     2  O   -0.008687  -0.000015  -0.000281  -0.000084   0.000019   0.000005
     3  C    0.016590   0.022753   0.010849  -0.010397  -0.043352  -0.011664
     4  C   -0.015415  -0.067950  -0.019914  -0.013617  -0.007712   0.008961
     5  C   -0.054185  -0.000334  -0.091057   0.015839   0.009571  -0.000681
     6  C   -0.003655  -0.139169  -0.001687   0.000776  -0.005685   0.045545
     7  C   -0.027134  -0.003519  -0.124040  -0.001795  -0.015567   0.001648
     8  C   -0.000843  -0.187227   0.000355   0.019492   0.004121   0.023745
     9  C   -0.031566  -0.000299  -0.062202   0.002134   0.072408  -0.000066
    10  C   -0.003664  -0.019719   0.011760  -0.007433   0.006611   0.011091
    11  C   -0.337214   0.000842   0.002784  -0.002664   0.004818   0.000017
    12  C   -0.000024   0.137625  -0.001498  -0.105991  -0.005831  -0.031822
    13  C   -0.012177   0.001965   0.180419   0.009075  -0.122282  -0.000885
    14  C    0.001156  -0.016707  -0.001010  -0.012609   0.000871   0.001922
    15  C    0.128515  -0.000567  -0.162175  -0.000399   0.016104   0.000031
    16  C   -0.003186   0.092949   0.004814   0.015701   0.002642  -0.010910
    17  C    0.584752   0.000357   0.087673  -0.000008   0.003297  -0.000003
    18  C   -0.000094   0.635892   0.000000  -0.050724   0.001813  -0.059488
    19  C    0.035854   0.000470   0.706561   0.001269  -0.058223  -0.000212
    20  C    0.000128   0.015863   0.000148   0.518555  -0.008625  -0.086453
    21  C   -0.004222   0.000436  -0.057442   0.002905   0.520939  -0.001353
    22  C    0.000055  -0.173670  -0.000130  -0.089243  -0.002633   0.433773
    23  C    0.006782  -0.000057  -0.165470  -0.001350  -0.083345   0.000129
    24  H    0.001396   0.000624   0.001643   0.016404   0.005622  -0.001045
    25  H   -0.000945  -0.000102  -0.000157  -0.001110  -0.001616  -0.000059
    26  H    0.000087   0.003289  -0.000245  -0.029831  -0.000840   0.000899
    27  H   -0.001454  -0.001471   0.003283  -0.006661  -0.039801   0.000716
    28  H   -0.000029  -0.005531  -0.000022  -0.000526  -0.000053   0.001915
    29  H   -0.003803  -0.000009  -0.007527  -0.000008   0.000345   0.000001
    30  H    0.000007   0.001891   0.000000   0.000059  -0.000058  -0.000301
    31  H    0.476135   0.000005   0.000656   0.000001  -0.000083   0.000001
    32  H    0.000005   0.433453   0.000006   0.001991   0.000004  -0.008122
    33  H    0.000656   0.000006   0.442843   0.000020   0.001138  -0.000003
    34  H    0.000001   0.001991   0.000020   0.428305   0.000382  -0.007924
    35  H   -0.000083   0.000004   0.001138   0.000382   0.427553  -0.000194
    36  H    0.000001  -0.008122  -0.000003  -0.007924  -0.000194   0.422348
    37  H   -0.000190  -0.000002  -0.009728  -0.000034  -0.004789   0.000014
    38  H    0.000083  -0.000212   0.000224  -0.000041   0.000125   0.000011
    39  H   -0.006401   0.000006   0.000058   0.000016   0.000013  -0.000000
              37         38         39
     1  O    0.000218   0.164675  -0.001443
     2  O    0.000016  -0.009579   0.192344
     3  C   -0.002501  -0.049763  -0.046466
     4  C    0.003372   0.088147   0.032977
     5  C    0.013005  -0.065684   0.240987
     6  C    0.000950  -0.018709   0.000668
     7  C    0.056401  -0.012059   0.035943
     8  C    0.000535   0.065455  -0.002350
     9  C    0.050544   0.013061  -0.003632
    10  C   -0.000642   0.339476  -0.007355
    11  C    0.005597   0.001736   0.280947
    12  C   -0.000097  -0.028195   0.001235
    13  C   -0.111571   0.014331  -0.000803
    14  C   -0.000118  -0.035647  -0.001994
    15  C    0.010318  -0.013558  -0.048640
    16  C   -0.000768  -0.299524   0.005954
    17  C   -0.005342   0.036247  -0.438177
    18  C   -0.000221  -0.007081  -0.000229
    19  C   -0.076280   0.010747  -0.012640
    20  C   -0.000010  -0.005458   0.002426
    21  C   -0.021315   0.005951  -0.000664
    22  C    0.000272   0.002808  -0.000247
    23  C    0.402710  -0.001117   0.000799
    24  H   -0.001499  -0.000877  -0.003626
    25  H   -0.000084  -0.002837   0.002507
    26  H    0.000337  -0.000024  -0.000098
    27  H    0.001659  -0.000572   0.000095
    28  H    0.000010   0.001021  -0.000011
    29  H    0.001874  -0.000419   0.001489
    30  H   -0.000033  -0.007189   0.000275
    31  H   -0.000190   0.000083  -0.006401
    32  H   -0.000002  -0.000212   0.000006
    33  H   -0.009728   0.000224   0.000058
    34  H   -0.000034  -0.000041   0.000016
    35  H   -0.004789   0.000125   0.000013
    36  H    0.000014   0.000011  -0.000000
    37  H    0.418106   0.000017   0.000009
    38  H    0.000017   0.513436  -0.002351
    39  H    0.000009  -0.002351   0.489142
 Mulliken charges:
               1
     1  O   -0.079114
     2  O   -0.164652
     3  C   -0.010100
     4  C    0.133109
     5  C    0.228806
     6  C    0.086340
     7  C    0.368847
     8  C    0.392379
     9  C    0.247633
    10  C   -0.687422
    11  C   -0.343095
    12  C   -0.058202
    13  C   -0.751122
    14  C   -0.627049
    15  C   -0.321945
    16  C   -0.535397
    17  C   -0.276465
    18  C    0.281385
    19  C   -0.249690
    20  C   -0.050500
    21  C   -0.342427
    22  C   -0.887966
    23  C   -0.422602
    24  H    0.208559
    25  H    0.385172
    26  H    0.237539
    27  H   -0.054391
    28  H    0.251588
    29  H    0.254309
    30  H    0.240928
    31  H    0.258824
    32  H    0.274440
    33  H    0.249982
    34  H    0.309537
    35  H    0.322509
    36  H    0.268409
    37  H    0.269264
    38  H    0.303343
    39  H    0.289238
 Sum of Mulliken charges =  -0.00000
 Mulliken charges with hydrogens summed into heavy atoms:
               1
     1  O    0.224229
     2  O    0.124586
     3  C    0.583631
     4  C    0.133109
     5  C    0.228806
     6  C    0.086340
     7  C    0.368847
     8  C    0.392379
     9  C    0.247633
    10  C   -0.687422
    11  C   -0.343095
    12  C    0.179337
    13  C   -0.805513
    14  C   -0.375461
    15  C   -0.067636
    16  C   -0.294469
    17  C   -0.017641
    18  C    0.555825
    19  C    0.000291
    20  C    0.259037
    21  C   -0.019918
    22  C   -0.619556
    23  C   -0.153338
 Electronic spatial extent (au):  <R**2>=           6744.8478
 Charge=             -0.0000 electrons
 Dipole moment (field-independent basis, Debye):
    X=             -0.6794    Y=             -1.7097    Z=              1.5406  Tot=              2.3996
 Quadrupole moment (field-independent basis, Debye-Ang):
[...]
 ,-0.00124464,-0.00029459,-0.00034187,-0.00003164,-0.00015149,-0.000035
 93,0.00164660,-0.00208662,0.00514752,-0.00000771,-0.00000273,-0.000015
 61,0.00073928,-0.00031335,0.00010520,-0.00011576,-0.00012077,-0.000033
 61,0.00007957,-0.00028374,-0.00013834,-0.00000804,0.00002419,0.0000229
 9,-0.02018486,-0.01538292,-0.00008759,0.00002248,-0.00000615,-0.000047
 61,0.00008057,0.00020916,-0.00037314,-0.00001178,0.00002929,-0.0000003
 9,0.00024531,-0.00008511,0.00019046,0.00000800,0.00003081,-0.00002670,
 0.00079707,0.00185123,0.00173094,-0.00002449,0.00005124,0.00003201,-0.
 14027961,-0.20668753,0.01229272,0.00004895,0.00005310,-0.00004180,0.00
 499212,0.00647810,0.00055219,0.00002429,-0.00002461,0.00000584,0.00004
 746,-0.00002566,0.00000553,-0.00001469,-0.00002297,-0.00000364,0.00085
 546,-0.00017360,-0.00170507,0.00001049,-0.00000798,0.00000071,-0.00004
 747,-0.00001105,0.00000813,0.00000614,0.00000241,0.00000116,-0.0000152
 6,-0.00001678,0.00000744,0.00001458,-0.00000535,0.00000306,0.00028802,
 0.00017400,0.00006826,0.00001297,-0.00000513,0.00001338,0.15214669,0.2
 1684771,-0.00004245,-0.00003680,-0.00003670,0.00002862,0.00008647,-0.0
 0002805,-0.00005080,0.00012728,0.00026987,0.00000837,-0.00008028,-0.00
 010879,0.00052622,-0.00012493,0.00031252,0.00008361,-0.00000873,0.0000
 6074,-0.00350021,0.00535520,0.00565253,-0.00000780,-0.00002736,0.00002
 723,0.00011563,0.00040305,-0.00096966,0.00001828,0.00004424,0.00006524
 ,0.00043538,0.00002761,-0.00054754,0.00004409,-0.00002882,-0.00002715,
 0.00972269,0.01021476,0.00404255,-0.00000944,0.00000495,-0.00001510,0.
 00012684,-0.00064256,-0.00046525,-0.00001027,0.00000044,-0.00003476,-0
 .00028280,0.00023524,-0.00005004,0.00001056,0.00003219,-0.00002392,-0.
 00405633,0.00194445,0.00311478,-0.00000084,-0.00005477,0.00004095,-0.0
 0135462,0.01236979,-0.04325735,-0.00003467,-0.00001109,0.00000336,-0.0
 0794346,-0.01026686,0.00377614,0.00003587,-0.00004163,0.00000859,-0.00
 000858,0.00000905,-0.00000169,-0.00000878,0.00003203,-0.00001233,0.001
 62946,-0.00174386,-0.00393951,0.00001093,-0.00000953,-0.00000508,0.000
 01817,0.00004318,0.00004186,0.00000363,-0.00000965,0.00000289,-0.00000
 427,0.00000494,0.00001308,0.00001176,-0.00000954,-0.00000376,-0.000499
 83,-0.00048674,0.00010177,-0.00003072,0.00000859,-0.00003064,0.0038251
 7,-0.01654547,0.03389487,-0.00000191,-0.00000923,-0.00001750,-0.000012
 90,-0.00001625,0.00000989,-0.00002014,0.00001948,0.00004218,-0.0002558
 3,0.00022162,-0.00022137,0.00006288,-0.00001500,0.00000494,0.00017114,
 0.00077029,0.00014183,-0.00003502,-0.00001379,-0.00000879,0.00409041,-
 0.00296799,0.00133348,-0.00000409,-0.00000479,0.00000175,0.00001633,0.
 00003604,0.00015239,-0.00001949,0.00001350,-0.00001952,0.00064964,-0.0
 0105123,0.00460134,0.00004096,0.00000544,0.00000598,-0.00015346,-0.000
 29704,0.00014255,-0.00001789,0.00000795,-0.00000806,-0.00006834,0.0001
 7625,-0.00036850,0.00001200,0.00000294,0.00000381,-0.00031437,-0.00185
 757,0.00188455,-0.00000371,0.00000438,0.00000287,-0.01046150,-0.011872
 94,-0.00346787,-0.00003057,-0.00003989,0.00000705,-0.22243119,-0.14506
 667,0.00177456,-0.00000223,0.00001392,-0.00001685,0.00002948,-0.000024
 13,-0.00006308,-0.00001089,-0.00000537,-0.00000490,-0.00058578,-0.0006
 3251,-0.00007950,0.00003051,-0.00001780,0.00002674,0.00006692,-0.00007
 897,0.00002385,-0.00000203,0.00000003,-0.00000187,-0.00004097,0.000014
 12,-0.00001532,-0.00000465,-0.00000173,-0.00000181,-0.00115160,0.00211
 528,-0.00163514,-0.00000160,0.00000158,-0.00000149,-0.00047610,0.00147
 216,-0.00045451,-0.00000312,0.00000951,0.00000565,0.23092142,-0.000004
 75,0.00001568,0.00002494,-0.00000225,-0.00004250,0.00001963,-0.0000043
 2,-0.00003369,0.00000841,0.00035884,-0.00015768,0.00037363,-0.00001542
 ,-0.00000921,0.00002046,0.00050791,-0.00037144,-0.00010743,-0.00000736
 ,0.00000018,-0.00000231,-0.00257745,0.00347988,-0.00570211,-0.00000636
 ,-0.00001317,-0.00000842,0.00006874,0.00001774,-0.00021329,-0.00001266
 ,0.00004194,-0.00001570,-0.00134121,0.00367148,-0.00112221,0.00000970,
 0.00000742,0.00000361,-0.00083373,-0.00007008,0.00039088,0.00000090,0.
 00001642,-0.00000089,0.00013875,-0.00054783,-0.00012338,0.00001052,-0.
 00001493,0.00000791,-0.01507508,-0.00717152,0.00194860,-0.00000415,0.0
 0000858,-0.00000477,0.00097119,0.00229071,-0.00108522,0.00000566,0.000
 00574,0.00000323,-0.14468268,-0.15515344,-0.00939386,-0.00000527,-0.00
 001041,0.00000380,-0.00000211,0.00000678,-0.00001116,-0.00000621,0.000
 00789,0.00000577,-0.00001589,0.00007488,-0.00014734,0.00000717,-0.0000
 0401,0.00000221,-0.00004497,0.00009353,-0.00008557,-0.00000255,0.00000
 089,-0.00000064,-0.00005887,-0.00010384,0.00002408,-0.00000273,-0.0000
 0363,-0.00000144,0.00245540,-0.00230438,0.00140347,-0.00000353,-0.0000
 0085,-0.00000163,0.00107071,-0.00115152,0.00120190,0.00000666,-0.00000
 721,-0.00000069,0.15908556,0.15739084,-0.00008616,-0.00002256,0.000070
 07,-0.00000752,0.00003437,-0.00000473,0.00001018,-0.00004135,-0.000068
 45,0.00003088,0.00047478,0.00015575,-0.00000244,0.00004226,0.00003227,
 -0.00024785,-0.00041366,-0.00114580,0.00001288,-0.00001082,0.00000194,
 0.00180804,-0.00524977,-0.00250174,0.00000757,0.00000965,-0.00000243,0
 .00026037,-0.00009294,-0.00040407,0.00001554,-0.00003536,0.00001390,0.
 00402740,-0.00164542,-0.00294039,-0.00001893,0.00001120,0.00001414,-0.
 00076177,-0.00035895,0.00071773,0.00000002,-0.00000935,0.00000575,-0.0
 0044778,-0.00016207,-0.00026458,-0.00000250,0.00001033,-0.00001126,-0.
 02070869,-0.01563015,0.00449923,0.00000266,-0.00000707,0.00000543,0.01
 888229,0.01640216,0.00487441,0.00000166,-0.00000348,0.00000502,0.00227
 016,-0.00907965,-0.05481807,0.00000572,0.00000245,-0.00000592,-0.00003
 472,0.00002681,0.00007677,-0.00000767,0.00000880,0.00002415,0.00100012
 ,0.00068936,0.00004584,-0.00001254,0.00000024,-0.00003481,0.00007441,-
 0.00004634,0.00000080,0.00000130,0.00000007,0.00000035,-0.00012118,-0.
 00007001,-0.00001267,0.00000245,0.00000160,0.00000012,-0.00105606,0.00
 187035,-0.00043127,0.00000171,0.00000058,0.00000110,-0.00115758,0.0006
 7315,0.00004555,-0.00000560,0.00000496,0.00000502,-0.00377531,0.012616
 42,0.05204495,0.00005676,0.00004958,0.00002033,0.00009216,-0.00000412,
 0.00003352,0.00001533,-0.00001239,-0.00001687,0.00001247,-0.00000773,-
 0.00000592,0.00012246,0.00048331,0.00012697,-0.00002856,0.00001188,0.0
 0000587,-0.00095834,-0.00086069,0.00024897,0.00002920,0.00001741,-0.00
 002973,-0.00202150,-0.00422388,-0.00241488,-0.00005308,-0.00004548,-0.
 00003365,-0.00047563,-0.00010559,-0.00017573,-0.00005069,0.00001389,-0
 .00002015,-0.00442914,-0.00065788,-0.00367382,-0.00000447,-0.00000898,
 0.00000822,0.00081007,-0.00035999,0.00026128,0.00001383,0.00000111,0.0
 0000042,-0.00003396,-0.00032883,0.00036165,-0.00001748,-0.00002811,0.0
 0000079,0.00911448,-0.01938993,0.00999592,0.00003627,0.00003375,-0.000
 01680,-0.00091266,0.02566547,-0.01157140,-0.00000392,0.00000274,0.0000
 3376,-0.06953852,0.05225982,-0.03430374,0.00001867,-0.00002194,0.00004
 946,0.00000654,0.00001304,0.00002214,0.00001396,-0.00001327,0.00003592
 ,-0.00012295,0.00118713,-0.00062140,-0.00000537,0.00000362,0.00000268,
 -0.00000804,-0.00000985,-0.00006755,-0.00000154,0.00000621,0.00000359,
 0.00001789,-0.00009386,0.00007731,-0.00000812,0.00000420,0.00000261,-0
 .00004883,0.00097805,0.00153994,-0.00000009,0.00000118,-0.00000327,0.0
 0020987,-0.00007238,0.00117746,-0.00000873,-0.00000095,0.00000078,0.06
 817959,0.00001286,-0.00002417,-0.00000865,0.00003192,-0.00002566,0.000
 02449,-0.00000423,-0.00000129,0.00001677,-0.00001143,0.00000656,0.0000
 5346,0.00018556,0.00009980,-0.00025245,0.00000037,-0.00001590,-0.00001
 657,-0.00031874,0.00005657,-0.00047072,-0.00000288,-0.00000621,-0.0000
 0207,-0.00490980,-0.00012015,0.00176557,-0.00000620,-0.00000262,-0.000
 00523,-0.00017265,0.00005622,-0.00006406,0.00003353,0.00000151,0.00001
 726,0.00006325,0.00228368,0.00132180,0.00001683,0.00001659,-0.00000145
 ,0.00074647,-0.00050272,0.00065848,-0.00002132,0.00000339,0.00000793,-
 0.00026894,-0.00044099,-0.00016486,0.00000644,0.00001401,0.00000302,0.
 00816312,-0.01526220,0.01074808,-0.00001904,-0.00002155,0.00000863,-0.
 00150515,0.00002582,0.00026433,0.00000450,-0.00000325,-0.00001671,0.05
 164249,-0.26659411,0.11372215,0.00000768,0.00000607,-0.00001260,0.0000
 1735,-0.00001314,-0.00000437,-0.00000733,0.00000480,-0.00002222,-0.000
 15665,-0.00011927,0.00005481,0.00000744,-0.00000110,-0.00000202,-0.000
 07135,0.00002761,0.00003257,0.00000094,-0.00000761,-0.00000364,0.00003
 694,-0.00012264,0.00003722,0.00000612,-0.00000168,-0.00000314,0.000226
 77,-0.00014324,-0.00191460,-0.00000154,0.00000122,0.,0.00078628,0.0001
 0296,-0.00081462,0.00000438,0.00000251,-0.00000076,-0.05449762,0.28067
 418,0.00001557,0.00003518,0.00000595,0.00001157,-0.00000411,0.00000850
 ,-0.00001165,-0.00002097,0.00001182,-0.00002953,0.00000600,0.00000641,
 0.00023022,-0.00017189,-0.00054222,-0.00000133,0.00003713,0.00000170,0
 .00003800,-0.00066344,-0.00049653,0.00000415,0.00000494,-0.00001330,-0
 .00210417,0.00198231,0.00719950,-0.00003068,-0.00002826,-0.00002743,-0
 .00010281,0.00000726,0.00005601,-0.00001183,0.00000374,0.00000874,-0.0
 0394571,0.00099321,0.00349375,0.00000055,0.00000390,0.00000632,-0.0001
 7736,0.00017553,0.00030315,-0.00001028,0.00000035,-0.00000972,0.000289
 73,-0.00017569,-0.00041735,-0.00000147,0.00000319,0.00000104,-0.001084
 98,0.00015695,0.00297581,0.00000617,0.00001597,-0.00000151,-0.00057638
 ,0.01088270,-0.00249153,0.00000235,-0.00000578,0.00000450,-0.03406446,
 0.11389156,-0.09535553,-0.00000672,0.00000535,0.00000800,-0.00000186,0
 .00000773,0.00000089,0.00001016,0.00000048,0.00001243,-0.00003273,0.00
 056133,-0.00012749,0.00000160,-0.00000195,0.00000232,-0.00004094,0.000
 06110,0.00013619,0.00000287,-0.00000349,0.00000302,0.00001699,-0.00002
 192,-0.00006381,0.00000062,-0.00000099,0.00000203,0.00182556,-0.001627
 80,-0.00370174,-0.00000298,-0.00000264,-0.00000414,0.00081637,-0.00114
 169,-0.00188837,-0.00000564,-0.00000082,0.00000080,0.03896811,-0.12496
 074,0.09085766,-0.02821319,-0.01527960,0.01582238,-0.00011287,-0.00036
 515,-0.00013711,-0.00035741,0.00004056,0.00036463,-0.00471197,-0.00434
 531,0.00099593,0.00034396,0.00022973,0.00007045,0.00149760,-0.00071955
 ,-0.00034818,-0.00001815,-0.00034210,0.00021230,0.00036257,0.00039844,
 0.00046949,-0.00027068,-0.00020117,0.00000557,-0.00565485,-0.01941599,
 -0.03450195,-0.00021577,0.00025460,0.00010223,-0.00048024,-0.00035562,
 -0.00018153,0.00011303,0.00023004,-0.00010019,-0.00089095,-0.00027598,
 -0.00028238,-0.00004843,0.00051694,-0.00043629,0.00139268,-0.00000878,
 -0.00260341,0.00033439,-0.00041314,0.00017542,-0.00031215,-0.00017272,
 0.00003543,-0.00002660,0.00024760,-0.00010261,0.00029178,0.00026684,-0
 .00020989,0.00015028,-0.00011596,0.00015910,-0.00013253,0.00012169,0.0
 0036190,-0.00019178,-0.00012121,-0.00008058,-0.00005706,0.00012371,-0.
 00004042,-0.00004187,0.00023810,-0.00008215,0.00002469,-0.00002083,0.0
 0005057,0.00000528,-0.00002861,-0.00001478,0.00017149,0.00010497,-0.00
 001257,-0.00003075,0.00003440,0.00003403,-0.00055727,0.00030580,0.0020
 2778,-0.00012872,-0.00001622,0.00008356,-0.00001916,-0.00003428,-0.000
 00658,-0.00001354,0.00001626,0.00000668,-0.00001218,-0.00001564,0.0000
 0792,-0.00000016,-0.00001764,0.00000674,0.00002377,0.00001318,0.000034
 97,-0.00001025,-0.00000198,0.00000204,0.03793126,-0.03331255,-0.125176
 50,-0.19728715,-0.00000133,-0.00095155,0.00013923,0.00021853,0.0000189
 9,0.00032451,-0.00424813,-0.00035710,0.00162924,0.00009625,-0.00024644
 ,0.00007324,-0.00052803,0.00016055,-0.00170930,-0.00010486,0.00001252,
 -0.00005424,0.00034637,0.00058705,0.00005070,0.00006138,-0.00004553,0.
 00002599,-0.00354574,-0.02056908,-0.02754865,0.00017147,0.00056141,-0.
 00052965,-0.00025852,-0.00018100,0.00016844,-0.00005133,-0.00003461,0.
 00008957,0.00022137,-0.00100864,-0.00011938,-0.00001322,0.00002104,0.0
 0006848,0.00287811,0.00184518,0.00040883,0.00013438,0.00001402,0.00000
 389,-0.00028455,-0.00019039,0.00005910,0.00001496,-0.00005943,-0.00000
 581,0.00020105,-0.00008458,-0.00016023,-0.00001703,-0.00002777,-0.0000
 4042,0.00012422,0.00016982,0.00021103,0.00000031,0.00001653,0.00007426
 ,-0.00000072,0.00010555,-0.00000019,0.00000048,-0.00011831,-0.00021459
 ,-0.00001951,0.00003449,-0.00001629,0.00001317,0.00000085,-0.00000929,
 0.00017160,0.00012198,-0.00001916,-0.00000684,0.00000213,-0.00001128,-
 0.00098584,0.00052423,0.00065650,-0.00005792,-0.00002085,0.00002061,-0
 .00000355,-0.00000163,-0.00002624,-0.00000920,0.00000077,-0.00001021,-
 0.00002462,-0.00000354,0.00001671,0.00001127,-0.00000544,-0.00001078,-
 0.00000714,0.00002735,0.00000613,-0.00000198,0.00000891,-0.00001417,0.
 03901566,0.14455254,-0.02203639,-0.22904431,-0.42953380,-0.00012883,0.
 00055131,0.00016145,0.00004166,0.00011122,-0.00003453,0.00115624,0.001
 34712,0.00180865,-0.00002605,0.00007588,-0.00009223,0.00026746,-0.0007
 1133,0.00029396,0.00004804,-0.00005994,-0.00004880,0.00025301,0.000131
 46,0.00033817,0.00001337,0.00002030,-0.00005893,-0.00036629,0.00089102
 ,-0.00062163,0.00001552,-0.00055069,-0.00002801,-0.00002263,0.00009187
 ,0.00001496,0.00002062,0.00002822,-0.00000366,0.00002014,-0.00035704,-
 0.00117582,-0.00001163,-0.00004220,0.00001989,0.00304942,0.00465353,0.
 00323908,-0.00006201,0.00006233,-0.00001278,-0.00019992,-0.00015175,-0
 .00011612,-0.00000956,0.00002034,0.00001720,0.00002047,0.00004220,-0.0
 0016884,0.00000691,0.00001101,0.00003529,0.00009797,0.00017060,0.00010
 670,-0.00000371,0.00000229,-0.00004973,-0.00000483,-0.00002517,0.00004
 317,-0.00006754,0.00001976,0.00029534,0.00001691,-0.00002880,0.0000098
 6,0.00001659,-0.00003031,-0.00001582,0.00012051,0.00013155,-0.00002116
 ,-0.00001935,0.00001281,0.00000423,-0.00021352,-0.00083322,-0.00065658
 ,0.00002022,-0.00000403,0.00000151,0.00002518,0.00000497,-0.00000921,-
 0.00001720,0.00000648,0.00000546,0.00000753,0.00000568,0.00001494,0.00
 000214,0.00000272,0.00000833,0.00000747,-0.00002536,0.00000704,-0.0000
 0382,0.00000865,0.00000016,0.01774291,0.22357782,0.42644040,0.00053140
 ,0.00091468,0.00016356,-0.33030626,-0.26711980,-0.05670867,-0.00048226
 ,0.00007018,-0.00018234,0.00022927,-0.00014127,0.00004875,0.00017875,0
 .00360835,-0.00208638,-0.00008413,-0.00002439,0.00009106,0.00056177,-0
 .00089128,-0.00021796,0.00000759,0.00003935,-0.00002843,-0.00008542,0.
 00004340,-0.00002508,-0.00062372,-0.00056852,-0.00021443,0.00732878,0.
 00820210,0.00213223,0.00002983,0.00000503,-0.00001114,0.00009627,0.000
 32221,-0.00005364,-0.00002528,-0.00003679,-0.00000407,-0.00102600,0.00
 003656,0.00006247,0.00013814,0.00008820,-0.00001551,0.00276524,0.00533
 528,-0.00090859,-0.00003052,-0.00001919,0.00001737,-0.00004039,-0.0000
 8487,-0.00001221,-0.00000215,0.00000407,-0.00000114,-0.00002308,-0.000
 15879,0.00011963,0.00001370,0.00002446,0.00001498,-0.00014891,0.000149
 59,-0.00010974,0.00002651,-0.00013830,0.00011269,0.00048403,-0.0003914
 7,0.00038207,0.00000535,0.00000360,0.00001280,0.00000014,-0.00001522,-
 0.00003012,0.00001117,0.00000727,-0.00000116,-0.00000554,0.00005409,-0
 .00006649,-0.00000531,-0.00000340,0.00002492,-0.00112178,-0.00101113,-
 0.00031261,0.00000039,-0.00000167,-0.00000431,-0.00001467,0.00002501,-
 0.00002464,0.00000196,0.00000245,0.00000320,0.00000914,0.00001390,0.00
 000075,0.00000266,-0.00000041,0.00000319,-0.00000768,-0.00002439,0.000
 00092,-0.00013427,-0.00019798,0.00022301,0.32174527,-0.00010233,-0.000
 50387,-0.00017539,-0.22316461,-0.23504194,-0.01807208,0.00085285,0.000
 29642,-0.00003374,-0.00011565,0.00014153,0.00019120,0.00330013,-0.0038
 1853,0.00310127,0.00001965,-0.00006319,-0.00014602,-0.00160475,0.00010
 159,0.00028868,0.00003884,-0.00003471,-0.00000995,0.00032165,0.0008937
 2,-0.00020704,0.00021353,0.00015051,0.00001344,-0.03140323,-0.03222239
 ,-0.00350601,0.00001694,0.00001785,0.00005101,0.00012896,-0.00051695,0
 .00019961,0.00007236,0.00004529,-0.00001600,-0.00046612,-0.00112847,0.
 00017068,-0.00006393,-0.00003223,0.00008114,-0.00140243,0.00375396,-0.
 00210580,0.00001399,0.00002091,-0.00001010,0.00016258,-0.00043266,0.00
 020764,-0.00001751,-0.00003108,0.00001167,-0.00030453,0.00015892,-0.00
 027390,0.00001541,-0.00001962,-0.00001832,0.00035707,0.00027633,0.0000
 1991,0.00002958,0.00005271,-0.00000227,-0.00040714,-0.00003416,-0.0001
 6762,-0.00001806,-0.00000720,-0.00004266,-0.00002002,0.00002981,0.0000
 3576,0.00000219,0.00001089,-0.00000835,-0.00010558,0.00025496,-0.00017
 606,-0.00000476,-0.00000020,-0.00003643,0.00165053,0.00006552,0.000663
 14,0.00000513,0.00000640,-0.00000962,-0.00002485,-0.00002104,0.0000060
 8,-0.00000385,0.00000815,0.00000161,0.00002125,-0.00000948,0.00001126,
 0.00000559,0.00001090,-0.00000596,0.00001305,0.00003710,0.00001044,0.0
 0010896,0.00029648,-0.00011699,0.25187909,0.26728778,-0.00070385,-0.00
 089157,-0.00036910,-0.07330973,-0.04018655,-0.02003945,-0.00026608,-0.
 00002099,-0.00023983,-0.00011352,-0.00010379,-0.00016734,-0.00209124,0
 .00317974,-0.00032208,0.00009066,0.00009430,-0.00003441,0.00034906,0.0
 0097602,0.00137515,0.00000614,-0.00007672,0.00009232,0.00000917,-0.000
 19404,0.00033046,0.00060040,0.00068833,0.00026499,0.01720447,0.0163475
 6,-0.00183362,-0.00005281,-0.00004245,0.00000145,-0.00010445,0.0001633
 1,-0.00028006,-0.00001998,0.00001469,0.00002706,0.00002244,-0.00015845
 ,-0.00098495,-0.00015647,-0.00008374,-0.00001053,0.00155472,0.00070655
 ,-0.00004147,0.00001316,0.00005482,-0.00004167,-0.00011300,0.00009431,
 -0.00004685,-0.00000308,0.00000605,-0.00001386,0.00017668,-0.00007851,
 -0.00009320,-0.00002212,-0.00004560,-0.00000605,-0.00007244,-0.0001006
 7,-0.00005190,-0.00005666,-0.00021645,0.00007293,0.00026665,-0.0001813
 1,0.00005710,0.00001654,0.00000504,0.00000570,-0.00003711,0.00002607,0
 .00007218,-0.00001512,-0.00001288,0.00000369,0.00002819,-0.00004167,-0
 .00000406,0.00001714,-0.00000693,-0.00001811,-0.00114321,-0.00019662,0
 .00047614,-0.00000369,-0.00000084,0.00000887,0.00000102,0.00002128,0.0
 0001418,-0.00000393,-0.00001197,-0.00000585,-0.00001668,0.00002367,0.0
 0000340,-0.00000585,-0.00000470,-0.00000194,-0.00001904,-0.00000376,0.
 00003397,0.00036857,0.00018275,-0.00021813,0.05760505,0.02007574,0.021
 98485\\-0.00002022,0.00001038,-0.00001598,0.00000140,-0.00003239,0.000
 02019,0.00002348,0.00000938,0.00000804,-0.00002765,-0.00003880,-0.0000
 1554,-0.00000893,-0.00000479,-0.00001526,0.00004129,0.00005706,0.00000
 459,-0.00000252,0.00000483,0.00000079,0.00000789,0.00002975,0.00002905
 ,0.00002289,-0.00002167,0.00001484,-0.00001837,-0.00000542,0.00006533,
 0.00000397,0.00002829,-0.00001766,-0.00004107,-0.00003970,-0.00001044,
 0.00000588,-0.00000233,-0.00000097,-0.00002528,-0.00004857,-0.00003077
 ,-0.00001811,-0.00000407,-0.00000068,0.00005448,0.00002282,-0.00002809
 ,-0.00000571,0.00000572,-0.00000418,-0.00000861,-0.00002769,-0.0000260
 7,-0.00001002,0.00002615,-0.00001263,0.00003324,0.00001212,-0.00002495
 ,0.00000910,-0.00001355,0.00000663,-0.00002019,-0.00000276,0.00002652,
 -0.00002281,-0.00000934,-0.00000625,0.00000740,0.00000723,0.00001057,-
 0.00001234,0.00000034,0.00000121,-0.00000017,-0.00000141,0.00000217,0.
 00000181,0.00000470,0.00000289,0.00000091,0.00000559,0.00000289,0.0000
 0292,0.00000209,0.00000012,-0.00000443,0.00000129,-0.00000152,-0.00000
 373,0.00000237,0.00000076,0.00000472,0.00000595,0.00000580,0.00000225,
 -0.00000036,-0.00000133,0.00000127,-0.00000084,0.00000114,0.00000102,0
 .00000171,-0.00000216,0.00000320,0.00000145,-0.00000527,0.00000448,0.0
 0000258,-0.00000254,0.00000964,-0.00000016,0.00001794,0.00000691,0.000
 01207,0.00000082\\\@


 NOT WHAT WE DID SHALL BE THE TEST
 WHEN ACT AND WILL ARE DONE,
 BUT WHAT OUR LORD INFERS WE WOULD-
 HAD WE DIVINER BEEN.
           EMILY DICKINSON  POEMS NO. CLXXV
 Job cpu time:       1 days  1 hours  9 minutes 10.0 seconds.
 Elapsed time:       0 days  1 hours 34 minutes 41.0 seconds.
 File lengths (MBytes):  RWF=   1261 Int=      0 D2E=      0 Chk=     32 Scr=      1
 Normal termination of Gaussian 16 at Sat Sep 20 16:51:01 2025.
