 Entering Gaussian System, Link 0=g16
 Input=MEDI0134.gjf
 Output=MEDI0134.log
 Initial command:
 /usr/local/g16/l1.exe "/dados_01/scratch/Gau-2149000.inp" -scrdir="/dados_01/scratch/"
 Entering Link 1 = /usr/local/g16/l1.exe PID=   2149001.
  
 Copyright (c) 1988-2017, Gaussian, Inc.  All Rights Reserved.
  
 This is part of the Gaussian(R) 16 program.  It is based on
 the Gaussian(R) 09 system (copyright 2009, Gaussian, Inc.),
 the Gaussian(R) 03 system (copyright 2003, Gaussian, Inc.),
 the Gaussian(R) 98 system (copyright 1998, Gaussian, Inc.),
 the Gaussian(R) 94 system (copyright 1995, Gaussian, Inc.),
 the Gaussian 92(TM) system (copyright 1992, Gaussian, Inc.),
 the Gaussian 90(TM) system (copyright 1990, Gaussian, Inc.),
 the Gaussian 88(TM) system (copyright 1988, Gaussian, Inc.),
 the Gaussian 86(TM) system (copyright 1986, Carnegie Mellon
 University), and the Gaussian 82(TM) system (copyright 1983,
 Carnegie Mellon University). Gaussian is a federally registered
 trademark of Gaussian, Inc.
  
 This software contains proprietary and confidential information,
 including trade secrets, belonging to Gaussian, Inc.
  
 This software is provided under written license and may be
 used, copied, transmitted, or stored only in accord with that
 written license.
  
 The following legend is applicable only to US Government
 contracts under FAR:
  
                    RESTRICTED RIGHTS LEGEND
  
 Use, reproduction and disclosure by the US Government is
 subject to restrictions as set forth in subparagraphs (a)
 and (c) of the Commercial Computer Software - Restricted
 Rights clause in FAR 52.227-19.
  
 Gaussian, Inc.
 340 Quinnipiac St., Bldg. 40, Wallingford CT 06492
  
  
 ---------------------------------------------------------------
 Warning -- This program may not be used in any manner that
 competes with the business of Gaussian, Inc. or will provide
 assistance to any competitor of Gaussian, Inc.  The licensee
 of this program is prohibited from giving any competitor of
 Gaussian, Inc. access to this program.  By using this program,
 the user acknowledges that Gaussian, Inc. is engaged in the
 business of creating and licensing software in the field of
 computational chemistry and represents and warrants to the
 licensee that it is not a competitor of Gaussian, Inc. and that
 it will not use this program in any manner prohibited above.
 ---------------------------------------------------------------
  

 Cite this work as:
 Gaussian 16, Revision B.01,
 M. J. Frisch, G. W. Trucks, H. B. Schlegel, G. E. Scuseria, 
 M. A. Robb, J. R. Cheeseman, G. Scalmani, V. Barone, 
 G. A. Petersson, H. Nakatsuji, X. Li, M. Caricato, A. V. Marenich, 
 J. Bloino, B. G. Janesko, R. Gomperts, B. Mennucci, H. P. Hratchian, 
 J. V. Ortiz, A. F. Izmaylov, J. L. Sonnenberg, D. Williams-Young, 
 F. Ding, F. Lipparini, F. Egidi, J. Goings, B. Peng, A. Petrone, 
 T. Henderson, D. Ranasinghe, V. G. Zakrzewski, J. Gao, N. Rega, 
 G. Zheng, W. Liang, M. Hada, M. Ehara, K. Toyota, R. Fukuda, 
 J. Hasegawa, M. Ishida, T. Nakajima, Y. Honda, O. Kitao, H. Nakai, 
 T. Vreven, K. Throssell, J. A. Montgomery, Jr., J. E. Peralta, 
 F. Ogliaro, M. J. Bearpark, J. J. Heyd, E. N. Brothers, K. N. Kudin, 
 V. N. Staroverov, T. A. Keith, R. Kobayashi, J. Normand, 
 K. Raghavachari, A. P. Rendell, J. C. Burant, S. S. Iyengar, 
 J. Tomasi, M. Cossi, J. M. Millam, M. Klene, C. Adamo, R. Cammi, 
 J. W. Ochterski, R. L. Martin, K. Morokuma, O. Farkas, 
 J. B. Foresman, and D. J. Fox, Gaussian, Inc., Wallingford CT, 2016.
 
 ******************************************
 Gaussian 16:  ES64L-G16RevB.01 20-Dec-2017
                20-Sep-2025 
 ******************************************
 %nprocs=16
 Will use up to   16 processors via shared memory.
 %mem=40GB
 %chk=MEDI0134.chk
 ----------------------------------------------------------------------
 # opt freq=noraman M08HX/6-311++G** scf=xqc Empiricaldispersion=pfd In
 t(Grid=ultraFine)
 ----------------------------------------------------------------------
 1/18=20,19=15,26=4,38=1/1,3;
 2/9=110,12=2,17=6,18=5,40=1/2;
 3/5=4,6=6,7=1111,11=2,25=1,30=1,71=1,74=-74,75=-5,124=11/1,2,3;
 4//1;
 5/5=2,8=3,13=1,38=5/2,8;
 6/7=2,8=2,9=2,10=2,28=1/1;
 7//1,2,3,16;
 1/18=20,19=15,26=4/3(2);
 2/9=110/2;
 99//99;
 2/9=110/2;
 3/5=4,6=6,7=1111,11=2,25=1,30=1,71=1,74=-74,75=-5,124=11/1,2,3;
 4/5=5,16=3,69=1/1;
 5/5=2,8=3,13=1,38=5/2,8;
 7//1,2,3,16;
 1/18=20,19=15,26=4/3(-5);
 2/9=110/2;
 6/7=2,8=2,9=2,10=2,19=2,28=1/1;
 99/9=1/99;
 --------
 MEDI0134
 --------
 Symbolic Z-matrix:
 Charge =  0 Multiplicity = 1
 O                     0.0796    1.1817    0.025 
 O                     0.0171   -1.1476    0.3151 
 C                    -0.724     0.0727    0.4486 
 C                     1.4071    0.661    -0.0006 
 C                     1.2013   -0.7771   -0.3905 
 C                    -1.9811    0.0093   -0.3975 
 H                    -0.9809    0.2058    1.5049 
 H                     1.8286    0.7502    1.0066 
 H                     2.0292    1.2177   -0.7056 
 H                     1.0019   -0.8784   -1.4629 
 H                     2.0359   -1.4261   -0.1147 
 H                    -1.7284   -0.1215   -1.4557 
 H                    -2.6079   -0.8382   -0.1035 
 H                    -2.5578    0.9353   -0.3111 
 

 GradGradGradGradGradGradGradGradGradGradGradGradGradGradGradGradGradGrad
 Berny optimization.
 Initialization pass.
                           ----------------------------
                           !    Initial Parameters    !
                           ! (Angstroms and Degrees)  !
 --------------------------                            --------------------------
 ! Name  Definition              Value          Derivative Info.                !
 --------------------------------------------------------------------------------
 ! R1    R(1,3)                  1.4336         estimate D2E/DX2                !
 ! R2    R(1,4)                  1.4262         estimate D2E/DX2                !
 ! R3    R(2,3)                  1.4339         estimate D2E/DX2                !
 ! R4    R(2,5)                  1.4274         estimate D2E/DX2                !
 ! R5    R(3,6)                  1.5166         estimate D2E/DX2                !
 ! R6    R(3,7)                  1.0952         estimate D2E/DX2                !
 ! R7    R(4,5)                  1.5042         estimate D2E/DX2                !
 ! R8    R(4,8)                  1.0955         estimate D2E/DX2                !
 ! R9    R(4,9)                  1.0927         estimate D2E/DX2                !
 ! R10   R(5,10)                 1.0955         estimate D2E/DX2                !
 ! R11   R(5,11)                 1.0926         estimate D2E/DX2                !
 ! R12   R(6,12)                 1.0958         estimate D2E/DX2                !
 ! R13   R(6,13)                 1.0943         estimate D2E/DX2                !
 ! R14   R(6,14)                 1.0943         estimate D2E/DX2                !
 ! A1    A(3,1,4)              104.1603         estimate D2E/DX2                !
 ! A2    A(3,2,5)              104.7085         estimate D2E/DX2                !
 ! A3    A(1,3,2)              109.945          estimate D2E/DX2                !
 ! A4    A(1,3,6)              109.3979         estimate D2E/DX2                !
 ! A5    A(1,3,7)              108.8121         estimate D2E/DX2                !
 ! A6    A(2,3,6)              109.9299         estimate D2E/DX2                !
 ! A7    A(2,3,7)              108.3274         estimate D2E/DX2                !
 ! A8    A(6,3,7)              110.4086         estimate D2E/DX2                !
 ! A9    A(1,4,5)              103.083          estimate D2E/DX2                !
 ! A10   A(1,4,8)              108.1741         estimate D2E/DX2                !
 ! A11   A(1,4,9)              110.8244         estimate D2E/DX2                !
 ! A12   A(5,4,8)              111.6428         estimate D2E/DX2                !
 ! A13   A(5,4,9)              113.438          estimate D2E/DX2                !
 ! A14   A(8,4,9)              109.4307         estimate D2E/DX2                !
 ! A15   A(2,5,4)              103.5053         estimate D2E/DX2                !
 ! A16   A(2,5,10)             107.9931         estimate D2E/DX2                !
 ! A17   A(2,5,11)             110.7782         estimate D2E/DX2                !
 ! A18   A(4,5,10)             111.5349         estimate D2E/DX2                !
 ! A19   A(4,5,11)             113.4504         estimate D2E/DX2                !
 ! A20   A(10,5,11)            109.3425         estimate D2E/DX2                !
 ! A21   A(3,6,12)             110.6454         estimate D2E/DX2                !
 ! A22   A(3,6,13)             110.9312         estimate D2E/DX2                !
 ! A23   A(3,6,14)             110.9401         estimate D2E/DX2                !
 ! A24   A(12,6,13)            107.4026         estimate D2E/DX2                !
 ! A25   A(12,6,14)            107.3845         estimate D2E/DX2                !
 ! A26   A(13,6,14)            109.4066         estimate D2E/DX2                !
 ! D1    D(4,1,3,2)            -15.8317         estimate D2E/DX2                !
 ! D2    D(4,1,3,6)           -136.6435         estimate D2E/DX2                !
 ! D3    D(4,1,3,7)            102.6585         estimate D2E/DX2                !
 ! D4    D(3,1,4,5)             32.662          estimate D2E/DX2                !
 ! D5    D(3,1,4,8)            -85.6856         estimate D2E/DX2                !
 ! D6    D(3,1,4,9)            154.3496         estimate D2E/DX2                !
 ! D7    D(5,2,3,1)             -8.7933         estimate D2E/DX2                !
 ! D8    D(5,2,3,6)            111.6977         estimate D2E/DX2                !
 ! D9    D(5,2,3,7)           -127.5816         estimate D2E/DX2                !
 ! D10   D(3,2,5,4)             28.5208         estimate D2E/DX2                !
 ! D11   D(3,2,5,10)           -89.8336         estimate D2E/DX2                !
 ! D12   D(3,2,5,11)           150.4502         estimate D2E/DX2                !
 ! D13   D(1,3,6,12)            60.1457         estimate D2E/DX2                !
 ! D14   D(1,3,6,13)           179.2437         estimate D2E/DX2                !
 ! D15   D(1,3,6,14)           -58.9354         estimate D2E/DX2                !
 ! D16   D(2,3,6,12)           -60.6752         estimate D2E/DX2                !
 ! D17   D(2,3,6,13)            58.4228         estimate D2E/DX2                !
 ! D18   D(2,3,6,14)          -179.7563         estimate D2E/DX2                !
 ! D19   D(7,3,6,12)           179.8668         estimate D2E/DX2                !
 ! D20   D(7,3,6,13)           -61.0352         estimate D2E/DX2                !
 ! D21   D(7,3,6,14)            60.7857         estimate D2E/DX2                !
 ! D22   D(1,4,5,2)            -38.6975         estimate D2E/DX2                !
 ! D23   D(1,4,5,10)            77.1709         estimate D2E/DX2                !
 ! D24   D(1,4,5,11)          -158.8214         estimate D2E/DX2                !
 ! D25   D(8,4,5,2)             77.1971         estimate D2E/DX2                !
 ! D26   D(8,4,5,10)          -166.9346         estimate D2E/DX2                !
 ! D27   D(8,4,5,11)           -42.9268         estimate D2E/DX2                !
 ! D28   D(9,4,5,2)           -158.6016         estimate D2E/DX2                !
 ! D29   D(9,4,5,10)           -42.7333         estimate D2E/DX2                !
 ! D30   D(9,4,5,11)            81.2744         estimate D2E/DX2                !
 --------------------------------------------------------------------------------
 Trust Radius=3.00D-01 FncErr=1.00D-07 GrdErr=1.00D-06 EigMax=2.50D+02 EigMin=1.00D-04
 Number of steps in this run=     80 maximum allowed number of steps=    100.
 GradGradGradGradGradGradGradGradGradGradGradGradGradGradGradGradGradGrad

                          Input orientation:                          
 ---------------------------------------------------------------------
 Center     Atomic      Atomic             Coordinates (Angstroms)
 Number     Number       Type             X           Y           Z
 ---------------------------------------------------------------------
      1          8           0        0.079600    1.181700    0.025000
      2          8           0        0.017100   -1.147600    0.315100
      3          6           0       -0.724000    0.072700    0.448600
      4          6           0        1.407100    0.661000   -0.000600
      5          6           0        1.201300   -0.777100   -0.390500
      6          6           0       -1.981100    0.009300   -0.397500
      7          1           0       -0.980900    0.205800    1.504900
      8          1           0        1.828600    0.750200    1.006600
      9          1           0        2.029200    1.217700   -0.705600
     10          1           0        1.001900   -0.878400   -1.462900
     11          1           0        2.035900   -1.426100   -0.114700
     12          1           0       -1.728400   -0.121500   -1.455700
     13          1           0       -2.607900   -0.838200   -0.103500
     14          1           0       -2.557800    0.935300   -0.311100
 ---------------------------------------------------------------------
                    Distance matrix (angstroms):
                    1          2          3          4          5
     1  O    0.000000
     2  O    2.348127   0.000000
     3  C    1.433559   1.433940   0.000000
     4  C    1.426198   2.302781   2.255984   0.000000
     5  C    2.295158   1.427400   2.265619   1.504163   0.000000
     6  C    2.408218   2.416406   1.516643   3.473059   3.278131
     7  H    2.065707   2.059932   1.095209   2.859420   3.052971
     8  H    2.051519   2.713181   2.699285   1.095477   2.162877
     9  H    2.082309   3.268795   3.197392   1.092679   2.182644
    10  H    2.703423   2.050264   2.745388   2.161541   1.095474
    11  H    3.263012   2.082749   3.190730   2.182749   1.092622
    12  H    2.675755   2.689867   2.161687   3.544148   3.185530
    13  H    3.364397   2.676113   2.164170   4.287005   3.820485
    14  H    2.670123   3.370565   2.164266   3.986488   4.131519
                    6          7          8          9         10
     6  C    0.000000
     7  H    2.158272   0.000000
     8  H    4.127256   2.904817   0.000000
     9  H    4.199722   3.869232   1.786176   0.000000
    10  H    3.289586   3.730258   3.071514   2.454075   0.000000
    11  H    4.275118   3.793057   2.456943   2.709038   1.785154
    12  H    1.095789   3.070999   4.413052   4.059023   2.833282
    13  H    1.094336   2.514760   4.841267   5.108028   3.857491
    14  H    1.094314   2.513293   4.583787   4.612586   4.157838
                   11         12         13         14
    11  H    0.000000
    12  H    4.203596   0.000000
    13  H    4.680879   1.765113   0.000000
    14  H    5.168836   1.764891   1.786312   0.000000
 Stoichiometry    C4H8O2
 Framework group  C1[X(C4H8O2)]
 Deg. of freedom    36
 Full point group                 C1      NOp   1
 Largest Abelian subgroup         C1      NOp   1
 Largest concise Abelian subgroup C1      NOp   1
                         Standard orientation:                         
 ---------------------------------------------------------------------
 Center     Atomic      Atomic             Coordinates (Angstroms)
 Number     Number       Type             X           Y           Z
 ---------------------------------------------------------------------
      1          8           0        0.097090   -1.184259    0.006651
      2          8           0        0.037123    1.130502   -0.383203
      3          6           0       -0.701672   -0.095122   -0.473817
      4          6           0        1.423920   -0.661607    0.026601
      5          6           0        1.212579    0.791591    0.352266
      6          6           0       -1.969288    0.003004    0.353060
      7          1           0       -0.945275   -0.273362   -1.526609
      8          1           0        1.858029   -0.793213   -0.970545
      9          1           0        2.037415   -1.187139    0.762391
     10          1           0        0.999731    0.938288    1.416803
     11          1           0        2.050256    1.429091    0.059496
     12          1           0       -1.729907    0.179024    1.407796
     13          1           0       -2.592762    0.836578    0.015414
     14          1           0       -2.544424   -0.926415    0.299010
 ---------------------------------------------------------------------
 Rotational constants (GHZ):           6.4427692           3.5929469           2.6996380
 Standard basis: 6-311++G(d,p) (5D, 7F)
 There are   194 symmetry adapted cartesian basis functions of A   symmetry.
 There are   188 symmetry adapted basis functions of A   symmetry.
   188 basis functions,   288 primitive gaussians,   194 cartesian basis functions
    24 alpha electrons       24 beta electrons
       nuclear repulsion energy       263.4753797856 Hartrees.
 NAtoms=   14 NActive=   14 NUniq=   14 SFac= 1.00D+00 NAtFMM=   60 NAOKFM=F Big=F
 Integral buffers will be    131072 words long.
 Raffenetti 2 integral format.
 Two-electron integral symmetry is turned on.
 R6APFD:  NTU= -4 IXU= 1 FactS= 1.050
 Nuclear repulsion after empirical dispersion term =      263.4686655929 Hartrees.
 One-electron integrals computed using PRISM.
 NBasis=   188 RedAO= T EigKep=  3.88D-05  NBF=   188
 NBsUse=   188 1.00D-06 EigRej= -1.00D+00 NBFU=   188
 ExpMin= 3.60D-02 ExpMax= 8.59D+03 ExpMxC= 1.30D+03 IAcc=3 IRadAn=         5 AccDes= 0.00D+00
 Harris functional with IExCor= 1009 and IRadAn=       5 diagonalized for initial guess.
 HarFok:  IExCor= 1009 AccDes= 0.00D+00 IRadAn=         5 IDoV= 1 UseB2=F ITyADJ=14
 ICtDFT=  3500011 ScaDFX=  1.000000  1.000000  1.000000  1.000000
 FoFCou: FMM=F IPFlag=           0 FMFlag=      100000 FMFlg1=           0
         NFxFlg=           0 DoJE=T BraDBF=F KetDBF=T FulRan=T
         wScrn=  0.000000 ICntrl=       500 IOpCl=  0 I1Cent=   200000004 NGrid=           0
         NMat0=    1 NMatS0=      1 NMatT0=    0 NMatD0=    1 NMtDS0=    0 NMtDT0=    0
 Petite list used in FoFCou.
 Requested convergence on RMS density matrix=1.00D-08 within  32 cycles.
 Requested convergence on MAX density matrix=1.00D-06.
 Requested convergence on             energy=1.00D-06.
 No special actions if energy rises.
 SCF Done:  E(RM08HX) =  -307.657083226     A.U. after   12 cycles
            NFock= 12  Conv=0.57D-08     -V/T= 2.0043
 QCSCF skips out because SCF is already converged.

 **********************************************************************

            Population analysis using the SCF Density.

 **********************************************************************

 Orbital symmetries:
       Occupied  (A) (A) (A) (A) (A) (A) (A) (A) (A) (A) (A) (A)
                 (A) (A) (A) (A) (A) (A) (A) (A) (A) (A) (A) (A)
       Virtual   (A) (A) (A) (A) (A) (A) (A) (A) (A) (A) (A) (A)
                 (A) (A) (A) (A) (A) (A) (A) (A) (A) (A) (A) (A)
                 (A) (A) (A) (A) (A) (A) (A) (A) (A) (A) (A) (A)
                 (A) (A) (A) (A) (A) (A) (A) (A) (A) (A) (A) (A)
                 (A) (A) (A) (A) (A) (A) (A) (A) (A) (A) (A) (A)
                 (A) (A) (A) (A) (A) (A) (A) (A) (A) (A) (A) (A)
                 (A) (A) (A) (A) (A) (A) (A) (A) (A) (A) (A) (A)
                 (A) (A) (A) (A) (A) (A) (A) (A) (A) (A) (A) (A)
                 (A) (A) (A) (A) (A) (A) (A) (A) (A) (A) (A) (A)
                 (A) (A) (A) (A) (A) (A) (A) (A) (A) (A) (A) (A)
                 (A) (A) (A) (A) (A) (A) (A) (A) (A) (A) (A) (A)
                 (A) (A) (A) (A) (A) (A) (A) (A) (A) (A) (A) (A)
                 (A) (A) (A) (A) (A) (A) (A) (A) (A) (A) (A) (A)
                 (A) (A) (A) (A) (A) (A) (A) (A)
 The electronic state is 1-A.
 Alpha  occ. eigenvalues --  -19.62483 -19.62244 -10.63238 -10.58448 -10.58360
 Alpha  occ. eigenvalues --  -10.51806  -1.21591  -1.11820  -0.89638  -0.80844
 Alpha  occ. eigenvalues --   -0.72853  -0.69338  -0.61032  -0.58998  -0.54601
 Alpha  occ. eigenvalues --   -0.51130  -0.50284  -0.47599  -0.45404  -0.44123
 Alpha  occ. eigenvalues --   -0.42974  -0.41734  -0.35779  -0.33209
 Alpha virt. eigenvalues --   -0.02626  -0.01210  -0.01031   0.00172   0.01669
 Alpha virt. eigenvalues --    0.02025   0.02134   0.03578   0.04370   0.05935
 Alpha virt. eigenvalues --    0.06319   0.07167   0.08199   0.08383   0.10163
 Alpha virt. eigenvalues --    0.11339   0.11850   0.12253   0.13063   0.13263
 Alpha virt. eigenvalues --    0.13915   0.14597   0.15060   0.15822   0.18270
 Alpha virt. eigenvalues --    0.18731   0.20187   0.21112   0.21609   0.22288
 Alpha virt. eigenvalues --    0.24809   0.25917   0.26204   0.28522   0.29411
 Alpha virt. eigenvalues --    0.30293   0.30641   0.31289   0.32989   0.33800
 Alpha virt. eigenvalues --    0.34353   0.35289   0.35800   0.37919   0.38697
 Alpha virt. eigenvalues --    0.42758   0.48456   0.49231   0.50386   0.51361
 Alpha virt. eigenvalues --    0.53852   0.60100   0.61349   0.62537   0.64014
 Alpha virt. eigenvalues --    0.64585   0.67579   0.68457   0.68952   0.70855
 Alpha virt. eigenvalues --    0.71203   0.72156   0.74794   0.75266   0.76055
 Alpha virt. eigenvalues --    0.77987   0.90512   0.96269   1.01492   1.03539
 Alpha virt. eigenvalues --    1.05735   1.07147   1.09636   1.18281   1.20643
 Alpha virt. eigenvalues --    1.21730   1.22113   1.28528   1.30402   1.34912
 Alpha virt. eigenvalues --    1.40358   1.46844   1.49928   1.50104   1.53371
 Alpha virt. eigenvalues --    1.56952   1.58007   1.59409   1.60930   1.62322
 Alpha virt. eigenvalues --    1.63289   1.65601   1.67040   1.70497   1.72219
 Alpha virt. eigenvalues --    1.73563   1.74535   1.75956   1.78024   1.82515
 Alpha virt. eigenvalues --    1.88404   1.91606   1.92868   1.95328   1.97493
 Alpha virt. eigenvalues --    1.99557   2.08431   2.13504   2.17366   2.19466
 Alpha virt. eigenvalues --    2.25384   2.26534   2.33522   2.34721   2.45650
 Alpha virt. eigenvalues --    2.47902   2.50304   2.52472   2.54630   2.57400
 Alpha virt. eigenvalues --    2.59390   2.59900   2.61264   2.65511   2.66405
 Alpha virt. eigenvalues --    2.71569   2.73660   2.77709   2.79060   2.91370
 Alpha virt. eigenvalues --    2.93118   2.94147   3.03108   3.03987   3.14991
 Alpha virt. eigenvalues --    3.18609   3.22266   3.24837   3.28467   3.34393
 Alpha virt. eigenvalues --    3.42670   3.49557   3.75235   3.83287   3.84616
 Alpha virt. eigenvalues --    3.90659   4.00897   4.04888   4.07654   4.18686
 Alpha virt. eigenvalues --    4.31046   4.32822   5.22135   5.26186   5.48052
 Alpha virt. eigenvalues --    5.59939   5.64456   5.79381  23.81618  23.90878
 Alpha virt. eigenvalues --   23.93529  24.02715  49.92653  49.97109
          Condensed to atoms (all electrons):
               1          2          3          4          5          6
     1  O    8.022547  -0.069793   0.482724   0.180182  -0.169781  -0.253338
     2  O   -0.069793   8.049157   0.393826  -0.119219   0.163827  -0.161248
     3  C    0.482724   0.393826   6.987572  -0.356321  -0.493900  -0.783767
     4  C    0.180182  -0.119219  -0.356321   6.221622  -0.355346   0.029392
     5  C   -0.169781   0.163827  -0.493900  -0.355346   6.245195   0.254882
     6  C   -0.253338  -0.161248  -0.783767   0.029392   0.254882   6.359705
     7  H   -0.044337  -0.089657   0.466911   0.040203  -0.054577  -0.169576
     8  H   -0.059178   0.001540   0.029830   0.420164  -0.086450  -0.033687
     9  H   -0.064525   0.006819  -0.033354   0.404072  -0.005501   0.021977
    10  H    0.001128  -0.067481   0.040275  -0.102619   0.457731  -0.030075
    11  H    0.001158  -0.073947  -0.034275   0.015261   0.387306   0.027359
    12  H   -0.006808  -0.009817   0.042019  -0.012020   0.001324   0.323761
    13  H    0.013372  -0.020403  -0.111351  -0.005746   0.012976   0.466487
    14  H   -0.013786   0.018203  -0.075510   0.006229   0.000176   0.419792
               7          8          9         10         11         12
     1  O   -0.044337  -0.059178  -0.064525   0.001128   0.001158  -0.006808
     2  O   -0.089657   0.001540   0.006819  -0.067481  -0.073947  -0.009817
     3  C    0.466911   0.029830  -0.033354   0.040275  -0.034275   0.042019
     4  C    0.040203   0.420164   0.404072  -0.102619   0.015261  -0.012020
     5  C   -0.054577  -0.086450  -0.005501   0.457731   0.387306   0.001324
     6  C   -0.169576  -0.033687   0.021977  -0.030075   0.027359   0.323761
     7  H    0.604312   0.012855  -0.004426  -0.006894   0.000056   0.008168
     8  H    0.012855   0.534646  -0.045556   0.011696  -0.017703  -0.000208
     9  H   -0.004426  -0.045556   0.501003  -0.010986   0.011900  -0.000137
    10  H   -0.006894   0.011696  -0.010986   0.539998  -0.053050  -0.006162
    11  H    0.000056  -0.017703   0.011900  -0.053050   0.517822   0.000033
    12  H    0.008168  -0.000208  -0.000137  -0.006162   0.000033   0.535754
    13  H   -0.012542  -0.000407   0.000669   0.003415  -0.001032  -0.041015
    14  H   -0.006813  -0.000319  -0.000115  -0.001628   0.001522  -0.043288
              13         14
     1  O    0.013372  -0.013786
     2  O   -0.020403   0.018203
     3  C   -0.111351  -0.075510
     4  C   -0.005746   0.006229
     5  C    0.012976   0.000176
     6  C    0.466487   0.419792
     7  H   -0.012542  -0.006813
     8  H   -0.000407  -0.000319
     9  H    0.000669  -0.000115
    10  H    0.003415  -0.001628
    11  H   -0.001032   0.001522
    12  H   -0.041015  -0.043288
    13  H    0.507906  -0.031127
    14  H   -0.031127   0.511921
 Mulliken charges:
               1
     1  O   -0.019566
     2  O   -0.021807
     3  C   -0.554679
     4  C   -0.365854
     5  C   -0.357863
     6  C   -0.471664
     7  H    0.256317
     8  H    0.232777
     9  H    0.218161
    10  H    0.224653
    11  H    0.217590
    12  H    0.208397
    13  H    0.218797
    14  H    0.214742
 Sum of Mulliken charges =  -0.00000
 Mulliken charges with hydrogens summed into heavy atoms:
               1
     1  O   -0.019566
     2  O   -0.021807
     3  C   -0.298363
     4  C    0.085084
     5  C    0.084380
     6  C    0.170272
 Electronic spatial extent (au):  <R**2>=            523.7131
 Charge=              0.0000 electrons
 Dipole moment (field-independent basis, Debye):
    X=              1.0705    Y=              0.0485    Z=              0.4117  Tot=              1.1480
 Quadrupole moment (field-independent basis, Debye-Ang):
   XX=            -31.6737   YY=            -42.2279   ZZ=            -36.5901
   XY=              0.2319   XZ=              1.0135   YZ=              1.5751
 Traceless Quadrupole moment (field-independent basis, Debye-Ang):
   XX=              5.1569   YY=             -5.3973   ZZ=              0.2404
   XY=              0.2319   XZ=              1.0135   YZ=              1.5751
 Octapole moment (field-independent basis, Debye-Ang**2):
  XXX=              4.8934  YYY=              0.8537  ZZZ=             -1.0555  XYY=              3.0771
  XXY=             -0.2343  XXZ=             -0.3440  XZZ=              0.7221  YZZ=             -0.8934
  YYZ=              1.3927  XYZ=             -0.3130
 Hexadecapole moment (field-independent basis, Debye-Ang**3):
 XXXX=           -404.4056 YYYY=           -203.1333 ZZZZ=            -90.4985 XXXY=              0.3501
 XXXZ=              2.5755 YYYX=              2.0504 YYYZ=             -0.2648 ZZZX=              1.3659
 ZZZY=              1.5778 XXYY=            -90.8438 XXZZ=            -84.0968 YYZZ=            -49.0760
 XXYZ=             -2.9088 YYXZ=              1.8343 ZZXY=             -1.8053
 N-N= 2.634686655929D+02 E-N=-1.246345475318D+03  KE= 3.063494662531D+02
 R6APFD:  NTU= -4 IXU= 1 FactS= 1.050
 Calling FoFJK, ICntrl=      2127 FMM=F ISym2X=0 I1Cent= 0 IOpClX= 0 NMat=1 NMatS=1 NMatT=0.
 ***** Axes restored to original set *****
 -------------------------------------------------------------------
 Center     Atomic                   Forces (Hartrees/Bohr)
 Number     Number              X              Y              Z
 -------------------------------------------------------------------
      1        8           0.004712209   -0.020027952   -0.002412293
      2        8           0.009768157    0.018205900    0.002078040
      3        6          -0.013452254    0.001287338   -0.005254180
      4        6          -0.002686533    0.010009869    0.003836896
      5        6          -0.004728638   -0.009978670   -0.002120401
      6        6          -0.003728422    0.001469690   -0.004682523
      7        1           0.002321969   -0.001691946    0.005027525
      8        1           0.004761572   -0.001661792    0.002880946
      9        1          -0.001984688    0.003003189   -0.001181890
     10        1           0.002736300    0.001395436   -0.004800959
     11        1          -0.000984533   -0.002893111    0.002140988
     12        1           0.003402249   -0.000068307   -0.000262032
     13        1           0.000259031    0.000183643    0.002872338
     14        1          -0.000396419    0.000766712    0.001877543
 -------------------------------------------------------------------
 Cartesian Forces:  Max     0.020027952 RMS     0.005994858

 GradGradGradGradGradGradGradGradGradGradGradGradGradGradGradGradGradGrad
 Berny optimization.
 FormGI is forming the generalized inverse of G from B-inverse, IUseBI=4.
 Internal  Forces:  Max     0.008801980 RMS     0.003309462
 Search for a local minimum.
 Step number   1 out of a maximum of   80
 All quantities printed in internal units (Hartrees-Bohrs-Radians)
 Mixed Optimization -- RFO/linear search
 Second derivative matrix not updated -- first step.
 ITU=  0
     Eigenvalues ---    0.00546   0.01122   0.01337   0.04830   0.04981
     Eigenvalues ---    0.05604   0.05650   0.05739   0.05864   0.06312
     Eigenvalues ---    0.06760   0.09198   0.10175   0.11011   0.11110
     Eigenvalues ---    0.11905   0.16000   0.16000   0.16000   0.17695
     Eigenvalues ---    0.19665   0.21984   0.29967   0.30692   0.34152
     Eigenvalues ---    0.34187   0.34188   0.34218   0.34316   0.34319
     Eigenvalues ---    0.34505   0.34511   0.36951   0.38001   0.40785
     Eigenvalues ---    0.40938
 RFO step:  Lambda=-4.97844887D-03 EMin= 5.45796072D-03
 Linear search not attempted -- first point.
 Iteration  1 RMS(Cart)=  0.02394891 RMS(Int)=  0.00072682
 Iteration  2 RMS(Cart)=  0.00059729 RMS(Int)=  0.00047121
 Iteration  3 RMS(Cart)=  0.00000021 RMS(Int)=  0.00047121
 Variable       Old X    -DE/DX   Delta X   Delta X   Delta X     New X
                                 (Linear)    (Quad)   (Total)
    R1        2.70903  -0.00711   0.00000  -0.01911  -0.01868   2.69035
    R2        2.69512  -0.00375   0.00000  -0.00745  -0.00765   2.68747
    R3        2.70975  -0.00487   0.00000  -0.01321  -0.01287   2.69689
    R4        2.69740  -0.00329   0.00000  -0.00622  -0.00652   2.69088
    R5        2.86604   0.00039   0.00000   0.00127   0.00127   2.86731
    R6        2.06965   0.00410   0.00000   0.01181   0.01181   2.08145
    R7        2.84246   0.00465   0.00000   0.01419   0.01392   2.85638
    R8        2.07015   0.00435   0.00000   0.01254   0.01254   2.08269
    R9        2.06486   0.00116   0.00000   0.00331   0.00331   2.06818
   R10        2.07015   0.00408   0.00000   0.01175   0.01175   2.08190
   R11        2.06476   0.00151   0.00000   0.00430   0.00430   2.06906
   R12        2.07074   0.00105   0.00000   0.00302   0.00302   2.07376
   R13        2.06799   0.00048   0.00000   0.00138   0.00138   2.06937
   R14        2.06795   0.00101   0.00000   0.00289   0.00289   2.07085
    A1        1.81794   0.00880   0.00000   0.04772   0.04729   1.86523
    A2        1.82751   0.00879   0.00000   0.04867   0.04830   1.87581
    A3        1.91890  -0.00861   0.00000  -0.05924  -0.05893   1.85997
    A4        1.90935   0.00285   0.00000   0.00913   0.00953   1.91888
    A5        1.89913   0.00052   0.00000   0.00703   0.00571   1.90484
    A6        1.91864   0.00581   0.00000   0.03154   0.03099   1.94963
    A7        1.89067  -0.00123   0.00000  -0.01864  -0.01941   1.87126
    A8        1.92699   0.00049   0.00000   0.02918   0.02898   1.95597
    A9        1.79914  -0.00417   0.00000  -0.02766  -0.02750   1.77163
   A10        1.88799   0.00207   0.00000   0.03932   0.03870   1.92669
   A11        1.93425   0.00074   0.00000  -0.02559  -0.02504   1.90922
   A12        1.94853  -0.00045   0.00000  -0.00384  -0.00337   1.94516
   A13        1.97987   0.00222   0.00000   0.01414   0.01335   1.99322
   A14        1.90993  -0.00050   0.00000   0.00327   0.00336   1.91329
   A15        1.80651  -0.00595   0.00000  -0.03136  -0.03117   1.77534
   A16        1.88483   0.00270   0.00000   0.04074   0.04009   1.92492
   A17        1.93344   0.00152   0.00000  -0.02285  -0.02235   1.91110
   A18        1.94665   0.00053   0.00000  -0.00487  -0.00450   1.94215
   A19        1.98008   0.00177   0.00000   0.01436   0.01370   1.99378
   A20        1.90839  -0.00064   0.00000   0.00376   0.00384   1.91223
   A21        1.93113  -0.00362   0.00000  -0.01883  -0.01889   1.91223
   A22        1.93611  -0.00224   0.00000  -0.01539  -0.01551   1.92060
   A23        1.93627  -0.00065   0.00000  -0.00530  -0.00537   1.93090
   A24        1.87453   0.00335   0.00000   0.02284   0.02274   1.89727
   A25        1.87421   0.00264   0.00000   0.01950   0.01948   1.89369
   A26        1.90950   0.00083   0.00000  -0.00075  -0.00089   1.90862
    D1       -0.27632   0.00044   0.00000  -0.01167  -0.01243  -0.28875
    D2       -2.38488  -0.00314   0.00000  -0.01928  -0.01968  -2.40456
    D3        1.79173  -0.00577   0.00000  -0.06473  -0.06507   1.72665
    D4        0.57006   0.00146   0.00000   0.02954   0.02987   0.59993
    D5       -1.49550   0.00314   0.00000   0.03037   0.03102  -1.46448
    D6        2.69391   0.00201   0.00000   0.01696   0.01805   2.71196
    D7       -0.15347  -0.00397   0.00000  -0.01743  -0.01735  -0.17082
    D8        1.94949  -0.00223   0.00000  -0.02368  -0.02424   1.92526
    D9       -2.22672   0.00110   0.00000   0.01939   0.01800  -2.20872
   D10        0.49778   0.00321   0.00000   0.02923   0.02920   0.52699
   D11       -1.56789   0.00436   0.00000   0.03217   0.03274  -1.53516
   D12        2.62585   0.00256   0.00000   0.01572   0.01665   2.64250
   D13        1.04974  -0.00250   0.00000  -0.01654  -0.01647   1.03327
   D14        3.12839  -0.00211   0.00000  -0.01011  -0.01002   3.11837
   D15       -1.02862  -0.00303   0.00000  -0.02530  -0.02517  -1.05379
   D16       -1.05898   0.00270   0.00000   0.03106   0.03110  -1.02788
   D17        1.01967   0.00309   0.00000   0.03749   0.03755   1.05722
   D18       -3.13734   0.00216   0.00000   0.02230   0.02240  -3.11494
   D19        3.13927   0.00024   0.00000   0.01590   0.01572  -3.12820
   D20       -1.06527   0.00063   0.00000   0.02233   0.02217  -1.04310
   D21        1.06091  -0.00030   0.00000   0.00715   0.00702   1.06793
   D22       -0.67540   0.00154   0.00000  -0.01100  -0.00988  -0.68528
   D23        1.34689   0.00164   0.00000   0.01697   0.01757   1.36446
   D24       -2.77196   0.00256   0.00000   0.02918   0.02975  -2.74221
   D25        1.34734   0.00144   0.00000   0.01781   0.01845   1.36579
   D26       -2.91356   0.00154   0.00000   0.04578   0.04591  -2.86765
   D27       -0.74921   0.00247   0.00000   0.05800   0.05808  -0.69113
   D28       -2.76812   0.00213   0.00000   0.03008   0.03071  -2.73741
   D29       -0.74584   0.00223   0.00000   0.05805   0.05816  -0.68767
   D30        1.41851   0.00316   0.00000   0.07027   0.07034   1.48885
         Item               Value     Threshold  Converged?
 Maximum Force            0.008802     0.000450     NO 
 RMS     Force            0.003309     0.000300     NO 
 Maximum Displacement     0.081783     0.001800     NO 
 RMS     Displacement     0.023804     0.001200     NO 
 Predicted change in Energy=-2.651232D-03
 GradGradGradGradGradGradGradGradGradGradGradGradGradGradGradGradGradGrad

                          Input orientation:                          
 ---------------------------------------------------------------------
 Center     Atomic      Atomic             Coordinates (Angstroms)
 Number     Number       Type             X           Y           Z
 ---------------------------------------------------------------------
      1          8           0        0.080054    1.145892    0.008120
      2          8           0        0.030963   -1.117887    0.316664
      3          6           0       -0.747063    0.071827    0.442987
      4          6           0        1.417316    0.661920    0.005140
      5          6           0        1.215044   -0.780544   -0.398728
      6          6           0       -2.005145    0.012069   -0.403119
      7          1           0       -0.973770    0.200992    1.513093
      8          1           0        1.856388    0.740497    1.012956
      9          1           0        2.013722    1.246505   -0.702210
     10          1           0        1.045178   -0.871951   -1.483402
     11          1           0        2.027393   -1.449841   -0.097179
     12          1           0       -1.733015   -0.130481   -1.456628
     13          1           0       -2.631530   -0.828096   -0.085418
     14          1           0       -2.574933    0.943898   -0.314175
 ---------------------------------------------------------------------
                    Distance matrix (angstroms):
                    1          2          3          4          5
     1  O    0.000000
     2  O    2.285237   0.000000
     3  C    1.423674   1.427131   0.000000
     4  C    1.422149   2.277440   2.285707   0.000000
     5  C    2.272638   1.423950   2.298888   1.511530   0.000000
     6  C    2.408886   2.437339   1.517313   3.507452   3.316304
     7  H    2.065993   2.044596   1.101457   2.864204   3.067471
     8  H    2.080721   2.696403   2.747715   1.102112   2.172035
     9  H    2.062465   3.249583   3.211429   1.094433   2.199753
    10  H    2.688455   2.080710   2.795321   2.169562   1.101693
    11  H    3.246698   2.065718   3.210118   2.200499   1.094898
    12  H    2.657412   2.689080   2.149784   3.562197   3.198873
    13  H    3.355304   2.708231   2.154133   4.315263   3.859605
    14  H    2.682095   3.382249   2.162154   4.014913   4.164706
                    6          7          8          9         10
     6  C    0.000000
     7  H    2.184330   0.000000
     8  H    4.176998   2.924208   0.000000
     9  H    4.214805   3.863388   1.795158   0.000000
    10  H    3.354545   3.769130   3.080560   2.456866   0.000000
    11  H    4.300249   3.784865   2.461548   2.763427   1.794524
    12  H    1.097386   3.083111   4.443114   4.062422   2.875561
    13  H    1.095065   2.522386   4.879376   5.124721   3.933759
    14  H    1.095844   2.540580   4.630254   4.614964   4.215401
                   11         12         13         14
    11  H    0.000000
    12  H    4.210639   0.000000
    13  H    4.700241   1.781632   0.000000
    14  H    5.192155   1.779977   1.787595   0.000000
 Stoichiometry    C4H8O2
 Framework group  C1[X(C4H8O2)]
 Deg. of freedom    36
 Full point group                 C1      NOp   1
 Largest Abelian subgroup         C1      NOp   1
 Largest concise Abelian subgroup C1      NOp   1
                         Standard orientation:                         
 ---------------------------------------------------------------------
 Center     Atomic      Atomic             Coordinates (Angstroms)
 Number     Number       Type             X           Y           Z
 ---------------------------------------------------------------------
      1          8           0        0.090821   -1.149468    0.016285
      2          8           0        0.058230    1.100055   -0.384829
      3          6           0       -0.724638   -0.089933   -0.472857
      4          6           0        1.430580   -0.672443    0.017216
      5          6           0        1.231035    0.786286    0.359289
      6          6           0       -1.993262    0.010562    0.353420
      7          1           0       -0.938127   -0.261520   -1.539716
      8          1           0        1.882273   -0.794259   -0.980675
      9          1           0        2.014509   -1.230646    0.755607
     10          1           0        1.047593    0.922716    1.437000
     11          1           0        2.050913    1.438668    0.041486
     12          1           0       -1.734064    0.194619    1.403751
     13          1           0       -2.610821    0.840174   -0.006486
     14          1           0       -2.566976   -0.921271    0.294984
 ---------------------------------------------------------------------
 Rotational constants (GHZ):           6.6160646           3.5230115           2.6937935
 Standard basis: 6-311++G(d,p) (5D, 7F)
 There are   194 symmetry adapted cartesian basis functions of A   symmetry.
 There are   188 symmetry adapted basis functions of A   symmetry.
   188 basis functions,   288 primitive gaussians,   194 cartesian basis functions
    24 alpha electrons       24 beta electrons
       nuclear repulsion energy       263.6378858400 Hartrees.
 NAtoms=   14 NActive=   14 NUniq=   14 SFac= 1.00D+00 NAtFMM=   60 NAOKFM=F Big=F
 Integral buffers will be    131072 words long.
 Raffenetti 2 integral format.
 Two-electron integral symmetry is turned on.
 R6APFD:  NTU= -4 IXU= 1 FactS= 1.050
 Nuclear repulsion after empirical dispersion term =      263.6312980207 Hartrees.
 One-electron integrals computed using PRISM.
 NBasis=   188 RedAO= T EigKep=  3.99D-05  NBF=   188
 NBsUse=   188 1.00D-06 EigRej= -1.00D+00 NBFU=   188
 Initial guess from the checkpoint file:  "MEDI0134.chk"
 B after Tr=     0.000000   -0.000000    0.000000
         Rot=    0.999994    0.000801    0.000078    0.003363 Ang=   0.40 deg.
 ExpMin= 3.60D-02 ExpMax= 8.59D+03 ExpMxC= 1.30D+03 IAcc=3 IRadAn=         5 AccDes= 0.00D+00
 Harris functional with IExCor= 1009 and IRadAn=       5 diagonalized for initial guess.
 HarFok:  IExCor= 1009 AccDes= 0.00D+00 IRadAn=         5 IDoV= 1 UseB2=F ITyADJ=14
 ICtDFT=  3500011 ScaDFX=  1.000000  1.000000  1.000000  1.000000
 FoFCou: FMM=F IPFlag=           0 FMFlag=      100000 FMFlg1=           0
         NFxFlg=           0 DoJE=T BraDBF=F KetDBF=T FulRan=T
         wScrn=  0.000000 ICntrl=       500 IOpCl=  0 I1Cent=   200000004 NGrid=           0
         NMat0=    1 NMatS0=      1 NMatT0=    0 NMatD0=    1 NMtDS0=    0 NMtDT0=    0
 Petite list used in FoFCou.
 Requested convergence on RMS density matrix=1.00D-08 within  32 cycles.
 Requested convergence on MAX density matrix=1.00D-06.
 Requested convergence on             energy=1.00D-06.
 No special actions if energy rises.
 SCF Done:  E(RM08HX) =  -307.659620596     A.U. after   11 cycles
            NFock= 11  Conv=0.23D-08     -V/T= 2.0044
 QCSCF skips out because SCF is already converged.
 R6APFD:  NTU= -4 IXU= 1 FactS= 1.050
 Calling FoFJK, ICntrl=      2127 FMM=F ISym2X=0 I1Cent= 0 IOpClX= 0 NMat=1 NMatS=1 NMatT=0.
 ***** Axes restored to original set *****
 -------------------------------------------------------------------
 Center     Atomic                   Forces (Hartrees/Bohr)
 Number     Number              X              Y              Z
 -------------------------------------------------------------------
      1        8           0.001232697   -0.000999839   -0.000896585
      2        8           0.001504659   -0.000341899   -0.000560037
      3        6           0.005378047    0.001201198   -0.002652738
      4        6          -0.003019690    0.004815863    0.001130589
      5        6          -0.003736449   -0.004077261    0.000858867
      6        6           0.000168757    0.000145562   -0.001419215
      7        1          -0.000399243   -0.001135699    0.000565295
      8        1           0.000404187   -0.000410783   -0.000126817
      9        1          -0.001626809    0.001204930    0.000145226
     10        1           0.000582303    0.000355210   -0.000107764
     11        1          -0.001673196   -0.000938207    0.000833054
     12        1           0.000698701    0.000005446    0.000784314
     13        1           0.000063634    0.000373812    0.000723491
     14        1           0.000422401   -0.000198334    0.000722321
 -------------------------------------------------------------------
 Cartesian Forces:  Max     0.005378047 RMS     0.001718208

 GradGradGradGradGradGradGradGradGradGradGradGradGradGradGradGradGradGrad
 Berny optimization.
 Using GEDIIS/GDIIS optimizer.
 FormGI is forming the generalized inverse of G from B-inverse, IUseBI=4.
 Internal  Forces:  Max     0.004664878 RMS     0.001271372
 Search for a local minimum.
 Step number   2 out of a maximum of   80
 All quantities printed in internal units (Hartrees-Bohrs-Radians)
 Mixed Optimization -- RFO/linear search
 Update second derivatives using D2CorX and points    1    2
 DE= -2.54D-03 DEPred=-2.65D-03 R= 9.57D-01
 TightC=F SS=  1.41D+00  RLast= 2.26D-01 DXNew= 5.0454D-01 6.7731D-01
 Trust test= 9.57D-01 RLast= 2.26D-01 DXMaxT set to 5.05D-01
 ITU=  1  0
 Use linear search instead of GDIIS.
     Eigenvalues ---    0.00545   0.01135   0.01346   0.04570   0.05104
     Eigenvalues ---    0.05366   0.05725   0.05829   0.05875   0.06339
     Eigenvalues ---    0.06990   0.09511   0.10014   0.10877   0.11027
     Eigenvalues ---    0.11795   0.15508   0.16000   0.16009   0.16825
     Eigenvalues ---    0.21814   0.23796   0.29212   0.30825   0.34031
     Eigenvalues ---    0.34183   0.34188   0.34232   0.34317   0.34343
     Eigenvalues ---    0.34507   0.34580   0.37337   0.37809   0.40532
     Eigenvalues ---    0.40823
 RFO step:  Lambda=-5.68602206D-04 EMin= 5.45374963D-03
 Quartic linear search produced a step of  0.02408.
 Iteration  1 RMS(Cart)=  0.01381882 RMS(Int)=  0.00011115
 Iteration  2 RMS(Cart)=  0.00011577 RMS(Int)=  0.00002626
 Iteration  3 RMS(Cart)=  0.00000001 RMS(Int)=  0.00002626
 Variable       Old X    -DE/DX   Delta X   Delta X   Delta X     New X
                                 (Linear)    (Quad)   (Total)
    R1        2.69035  -0.00198  -0.00045  -0.00821  -0.00863   2.68172
    R2        2.68747  -0.00466  -0.00018  -0.01201  -0.01222   2.67525
    R3        2.69689  -0.00134  -0.00031  -0.00578  -0.00607   2.69082
    R4        2.69088  -0.00452  -0.00016  -0.01105  -0.01123   2.67965
    R5        2.86731  -0.00159   0.00003  -0.00517  -0.00514   2.86216
    R6        2.08145   0.00050   0.00028   0.00247   0.00275   2.08420
    R7        2.85638   0.00435   0.00034   0.01769   0.01802   2.87440
    R8        2.08269   0.00002   0.00030   0.00110   0.00140   2.08409
    R9        2.06818  -0.00034   0.00008  -0.00073  -0.00065   2.06753
   R10        2.08190  -0.00001   0.00028   0.00094   0.00123   2.08312
   R11        2.06906  -0.00044   0.00010  -0.00095  -0.00084   2.06821
   R12        2.07376  -0.00058   0.00007  -0.00148  -0.00141   2.07235
   R13        2.06937  -0.00011   0.00003  -0.00022  -0.00019   2.06919
   R14        2.07085  -0.00033   0.00007  -0.00074  -0.00067   2.07017
    A1        1.86523  -0.00124   0.00114  -0.00294  -0.00182   1.86340
    A2        1.87581  -0.00157   0.00116  -0.00316  -0.00203   1.87378
    A3        1.85997   0.00276  -0.00142   0.01028   0.00889   1.86886
    A4        1.91888  -0.00189   0.00023  -0.00662  -0.00641   1.91246
    A5        1.90484   0.00043   0.00014   0.00816   0.00829   1.91313
    A6        1.94963  -0.00080   0.00075   0.00117   0.00191   1.95154
    A7        1.87126  -0.00066  -0.00047  -0.01019  -0.01070   1.86056
    A8        1.95597   0.00033   0.00070  -0.00198  -0.00129   1.95468
    A9        1.77163  -0.00012  -0.00066  -0.00036  -0.00104   1.77059
   A10        1.92669   0.00048   0.00093   0.00754   0.00846   1.93516
   A11        1.90922  -0.00120  -0.00060  -0.01843  -0.01896   1.89026
   A12        1.94516  -0.00062  -0.00008  -0.00331  -0.00338   1.94178
   A13        1.99322   0.00147   0.00032   0.01183   0.01212   2.00534
   A14        1.91329  -0.00004   0.00008   0.00215   0.00222   1.91551
   A15        1.77534   0.00026  -0.00075   0.00151   0.00073   1.77607
   A16        1.92492   0.00047   0.00097   0.00863   0.00959   1.93451
   A17        1.91110  -0.00141  -0.00054  -0.01937  -0.01983   1.89127
   A18        1.94215  -0.00099  -0.00011  -0.00425  -0.00433   1.93781
   A19        1.99378   0.00164   0.00033   0.01133   0.01162   2.00540
   A20        1.91223   0.00002   0.00009   0.00182   0.00191   1.91414
   A21        1.91223  -0.00090  -0.00046  -0.00593  -0.00639   1.90584
   A22        1.92060  -0.00037  -0.00037  -0.00410  -0.00450   1.91610
   A23        1.93090  -0.00077  -0.00013  -0.00627  -0.00643   1.92447
   A24        1.89727   0.00085   0.00055   0.00914   0.00968   1.90695
   A25        1.89369   0.00094   0.00047   0.00847   0.00892   1.90262
   A26        1.90862   0.00029  -0.00002  -0.00084  -0.00091   1.90771
    D1       -0.28875  -0.00094  -0.00030  -0.00731  -0.00763  -0.29638
    D2       -2.40456  -0.00057  -0.00047  -0.01117  -0.01163  -2.41619
    D3        1.72665  -0.00004  -0.00157  -0.00977  -0.01129   1.71536
    D4        0.59993  -0.00051   0.00072  -0.00311  -0.00239   0.59754
    D5       -1.46448   0.00007   0.00075  -0.00236  -0.00159  -1.46607
    D6        2.71196   0.00058   0.00043   0.00205   0.00254   2.71450
    D7       -0.17082   0.00034  -0.00042   0.00941   0.00902  -0.16181
    D8        1.92526  -0.00067  -0.00058   0.00850   0.00793   1.93319
    D9       -2.20872  -0.00121   0.00043  -0.00014   0.00032  -2.20840
   D10        0.52699  -0.00112   0.00070  -0.01271  -0.01197   0.51502
   D11       -1.53516  -0.00032   0.00079  -0.01236  -0.01154  -1.54670
   D12        2.64250   0.00027   0.00040  -0.00766  -0.00719   2.63531
   D13        1.03327   0.00077  -0.00040   0.01237   0.01197   1.04524
   D14        3.11837   0.00103  -0.00024   0.01740   0.01715   3.13552
   D15       -1.05379   0.00065  -0.00061   0.00956   0.00896  -1.04483
   D16       -1.02788  -0.00095   0.00075   0.00312   0.00388  -1.02401
   D17        1.05722  -0.00069   0.00090   0.00816   0.00905   1.06627
   D18       -3.11494  -0.00106   0.00054   0.00032   0.00087  -3.11408
   D19       -3.12820   0.00023   0.00038   0.01679   0.01717  -3.11103
   D20       -1.04310   0.00049   0.00053   0.02182   0.02235  -1.02075
   D21        1.06793   0.00011   0.00017   0.01398   0.01416   1.08209
   D22       -0.68528  -0.00042  -0.00024   0.00602   0.00581  -0.67947
   D23        1.36446  -0.00016   0.00042   0.01498   0.01541   1.37987
   D24       -2.74221   0.00033   0.00072   0.02286   0.02361  -2.71860
   D25        1.36579  -0.00020   0.00044   0.01312   0.01357   1.37936
   D26       -2.86765   0.00006   0.00111   0.02208   0.02317  -2.84448
   D27       -0.69113   0.00055   0.00140   0.02996   0.03137  -0.65977
   D28       -2.73741   0.00041   0.00074   0.02269   0.02346  -2.71395
   D29       -0.68767   0.00067   0.00140   0.03165   0.03307  -0.65460
   D30        1.48885   0.00116   0.00169   0.03953   0.04126   1.53011
         Item               Value     Threshold  Converged?
 Maximum Force            0.004665     0.000450     NO 
 RMS     Force            0.001271     0.000300     NO 
 Maximum Displacement     0.047928     0.001800     NO 
 RMS     Displacement     0.013831     0.001200     NO 
 Predicted change in Energy=-2.885178D-04
 GradGradGradGradGradGradGradGradGradGradGradGradGradGradGradGradGradGrad

                          Input orientation:                          
 ---------------------------------------------------------------------
 Center     Atomic      Atomic             Coordinates (Angstroms)
 Number     Number       Type             X           Y           Z
 ---------------------------------------------------------------------
      1          8           0        0.076266    1.142865    0.003273
      2          8           0        0.030112   -1.122839    0.307721
      3          6           0       -0.741407    0.066990    0.436599
      4          6           0        1.409953    0.668066    0.003743
      5          6           0        1.212985   -0.785729   -0.397912
      6          6           0       -2.000054    0.015501   -0.404319
      7          1           0       -0.966324    0.181986    1.510194
      8          1           0        1.855283    0.748178    1.009500
      9          1           0        1.988359    1.267575   -0.705531
     10          1           0        1.060574   -0.878399   -1.485726
     11          1           0        2.010192   -1.464137   -0.078462
     12          1           0       -1.725402   -0.130423   -1.455933
     13          1           0       -2.630779   -0.817492   -0.076815
     14          1           0       -2.559158    0.952657   -0.308231
 ---------------------------------------------------------------------
                    Distance matrix (angstroms):
                    1          2          3          4          5
     1  O    0.000000
     2  O    2.286533   0.000000
     3  C    1.419108   1.423919   0.000000
     4  C    1.415682   2.281164   2.275304   0.000000
     5  C    2.274324   1.418009   2.289800   1.521066   0.000000
     6  C    2.397537   2.434007   1.514591   3.495784   3.311439
     7  H    2.069080   2.035041   1.102913   2.855235   3.053969
     8  H    2.081627   2.706373   2.745002   1.102853   2.178583
     9  H    2.043051   3.251999   3.193351   1.094090   2.216279
    10  H    2.696570   2.082801   2.799327   2.175348   1.102342
    11  H    3.247031   2.046055   3.190758   2.216605   1.094452
    12  H    2.645099   2.679028   2.142170   3.549463   3.191073
    13  H    3.343278   2.705817   2.148402   4.305914   3.857283
    14  H    2.660578   3.375115   2.154854   3.991512   4.154406
                    6          7          8          9         10
     6  C    0.000000
     7  H    2.182126   0.000000
     8  H    4.171250   2.921085   0.000000
     9  H    4.191164   3.849428   1.796890   0.000000
    10  H    3.366889   3.769386   3.082770   2.464690   0.000000
    11  H    4.286908   3.754091   2.470222   2.802846   1.795899
    12  H    1.096640   3.077613   4.435268   4.038505   2.884791
    13  H    1.094966   2.507581   4.874029   5.106783   3.951561
    14  H    1.095487   2.537267   4.611456   4.575690   4.223947
                   11         12         13         14
    11  H    0.000000
    12  H    4.198914   0.000000
    13  H    4.685805   1.787103   0.000000
    14  H    5.174229   1.784778   1.786648   0.000000
 Stoichiometry    C4H8O2
 Framework group  C1[X(C4H8O2)]
 Deg. of freedom    36
 Full point group                 C1      NOp   1
 Largest Abelian subgroup         C1      NOp   1
 Largest concise Abelian subgroup C1      NOp   1
                         Standard orientation:                         
 ---------------------------------------------------------------------
 Center     Atomic      Atomic             Coordinates (Angstroms)
 Number     Number       Type             X           Y           Z
 ---------------------------------------------------------------------
      1          8           0        0.085592   -1.147758    0.014241
      2          8           0        0.059861    1.105236   -0.375104
      3          6           0       -0.718470   -0.083359   -0.469912
      4          6           0        1.422568   -0.682300    0.014064
      5          6           0        1.230820    0.786791    0.358515
      6          6           0       -1.987733    0.008015    0.351434
      7          1           0       -0.929982   -0.236903   -1.541408
      8          1           0        1.880582   -0.802963   -0.981902
      9          1           0        1.987183   -1.258748    0.752950
     10          1           0        1.064698    0.921099    1.439960
     11          1           0        2.037072    1.447396    0.024773
     12          1           0       -1.725977    0.191308    1.400484
     13          1           0       -2.608026    0.832406   -0.015398
     14          1           0       -2.552280   -0.928293    0.282832
 ---------------------------------------------------------------------
 Rotational constants (GHZ):           6.5998034           3.5504692           2.7020280
 Standard basis: 6-311++G(d,p) (5D, 7F)
 There are   194 symmetry adapted cartesian basis functions of A   symmetry.
 There are   188 symmetry adapted basis functions of A   symmetry.
   188 basis functions,   288 primitive gaussians,   194 cartesian basis functions
    24 alpha electrons       24 beta electrons
       nuclear repulsion energy       264.0494527384 Hartrees.
 NAtoms=   14 NActive=   14 NUniq=   14 SFac= 1.00D+00 NAtFMM=   60 NAOKFM=F Big=F
 Integral buffers will be    131072 words long.
 Raffenetti 2 integral format.
 Two-electron integral symmetry is turned on.
 R6APFD:  NTU= -4 IXU= 1 FactS= 1.050
 Nuclear repulsion after empirical dispersion term =      264.0428669951 Hartrees.
 One-electron integrals computed using PRISM.
 NBasis=   188 RedAO= T EigKep=  3.97D-05  NBF=   188
 NBsUse=   188 1.00D-06 EigRej= -1.00D+00 NBFU=   188
 Initial guess from the checkpoint file:  "MEDI0134.chk"
 B after Tr=    -0.000000    0.000000    0.000000
         Rot=    0.999997   -0.002162    0.000048    0.000988 Ang=  -0.27 deg.
 ExpMin= 3.60D-02 ExpMax= 8.59D+03 ExpMxC= 1.30D+03 IAcc=3 IRadAn=         5 AccDes= 0.00D+00
 Harris functional with IExCor= 1009 and IRadAn=       5 diagonalized for initial guess.
 HarFok:  IExCor= 1009 AccDes= 0.00D+00 IRadAn=         5 IDoV= 1 UseB2=F ITyADJ=14
 ICtDFT=  3500011 ScaDFX=  1.000000  1.000000  1.000000  1.000000
 FoFCou: FMM=F IPFlag=           0 FMFlag=      100000 FMFlg1=           0
         NFxFlg=           0 DoJE=T BraDBF=F KetDBF=T FulRan=T
         wScrn=  0.000000 ICntrl=       500 IOpCl=  0 I1Cent=   200000004 NGrid=           0
         NMat0=    1 NMatS0=      1 NMatT0=    0 NMatD0=    1 NMtDS0=    0 NMtDT0=    0
 Petite list used in FoFCou.
 Requested convergence on RMS density matrix=1.00D-08 within  32 cycles.
 Requested convergence on MAX density matrix=1.00D-06.
 Requested convergence on             energy=1.00D-06.
 No special actions if energy rises.
 SCF Done:  E(RM08HX) =  -307.659886532     A.U. after    9 cycles
            NFock=  9  Conv=0.98D-08     -V/T= 2.0043
 QCSCF skips out because SCF is already converged.
 R6APFD:  NTU= -4 IXU= 1 FactS= 1.050
 Calling FoFJK, ICntrl=      2127 FMM=F ISym2X=0 I1Cent= 0 IOpClX= 0 NMat=1 NMatS=1 NMatT=0.
 ***** Axes restored to original set *****
 -------------------------------------------------------------------
 Center     Atomic                   Forces (Hartrees/Bohr)
 Number     Number              X              Y              Z
 -------------------------------------------------------------------
      1        8          -0.000884954   -0.001329003    0.000282821
      2        8           0.000077145    0.000195139   -0.001091963
      3        6           0.000594861    0.001069654    0.001075231
      4        6           0.000232998    0.001408254    0.000000171
      5        6           0.000085019   -0.001411642    0.000185811
      6        6          -0.000104920   -0.000034995   -0.000111563
      7        1          -0.000344420    0.000138743   -0.000093907
      8        1          -0.000075758   -0.000103248   -0.000275521
      9        1           0.000312480   -0.000515032    0.000043003
     10        1           0.000120332    0.000051949    0.000261669
     11        1           0.000319861    0.000486931   -0.000196972
     12        1          -0.000232985   -0.000037856    0.000200448
     13        1          -0.000211338    0.000156813   -0.000214827
     14        1           0.000111678   -0.000075707   -0.000064399
 -------------------------------------------------------------------
 Cartesian Forces:  Max     0.001411642 RMS     0.000532689

 GradGradGradGradGradGradGradGradGradGradGradGradGradGradGradGradGradGrad
 Berny optimization.
 Using GEDIIS/GDIIS optimizer.
 FormGI is forming the generalized inverse of G from B-inverse, IUseBI=4.
 Internal  Forces:  Max     0.000933099 RMS     0.000275432
 Search for a local minimum.
 Step number   3 out of a maximum of   80
 All quantities printed in internal units (Hartrees-Bohrs-Radians)
 Mixed Optimization -- En-DIIS/RFO-DIIS
 Update second derivatives using D2CorX and points    1    2    3
 DE= -2.66D-04 DEPred=-2.89D-04 R= 9.22D-01
 TightC=F SS=  1.41D+00  RLast= 1.04D-01 DXNew= 8.4853D-01 3.1295D-01
 Trust test= 9.22D-01 RLast= 1.04D-01 DXMaxT set to 5.05D-01
 ITU=  1  1  0
 Use linear search instead of GDIIS.
     Eigenvalues ---    0.00537   0.01058   0.01340   0.04953   0.05227
     Eigenvalues ---    0.05396   0.05781   0.05787   0.05923   0.06300
     Eigenvalues ---    0.07074   0.09726   0.09892   0.10918   0.11305
     Eigenvalues ---    0.11827   0.15337   0.16003   0.16126   0.16698
     Eigenvalues ---    0.21888   0.24011   0.28303   0.31115   0.34056
     Eigenvalues ---    0.34186   0.34188   0.34269   0.34317   0.34362
     Eigenvalues ---    0.34508   0.34595   0.37248   0.37785   0.39987
     Eigenvalues ---    0.42288
 RFO step:  Lambda=-4.08620071D-05 EMin= 5.36633259D-03
 Quartic linear search produced a step of -0.06300.
 Iteration  1 RMS(Cart)=  0.00608177 RMS(Int)=  0.00002148
 Iteration  2 RMS(Cart)=  0.00002611 RMS(Int)=  0.00000623
 Iteration  3 RMS(Cart)=  0.00000000 RMS(Int)=  0.00000623
 Variable       Old X    -DE/DX   Delta X   Delta X   Delta X     New X
                                 (Linear)    (Quad)   (Total)
    R1        2.68172  -0.00093   0.00054  -0.00349  -0.00295   2.67877
    R2        2.67525   0.00038   0.00077  -0.00098  -0.00021   2.67505
    R3        2.69082   0.00056   0.00038   0.00061   0.00099   2.69180
    R4        2.67965   0.00013   0.00071  -0.00095  -0.00024   2.67941
    R5        2.86216   0.00047   0.00032   0.00077   0.00109   2.86325
    R6        2.08420  -0.00001  -0.00017   0.00035   0.00017   2.08438
    R7        2.87440   0.00042  -0.00114   0.00371   0.00258   2.87698
    R8        2.08409  -0.00029  -0.00009  -0.00060  -0.00068   2.08341
    R9        2.06753  -0.00015   0.00004  -0.00048  -0.00044   2.06709
   R10        2.08312  -0.00028  -0.00008  -0.00059  -0.00067   2.08245
   R11        2.06821  -0.00013   0.00005  -0.00045  -0.00040   2.06781
   R12        2.07235  -0.00024   0.00009  -0.00085  -0.00076   2.07158
   R13        2.06919  -0.00006   0.00001  -0.00019  -0.00018   2.06901
   R14        2.07017  -0.00013   0.00004  -0.00044  -0.00039   2.06978
    A1        1.86340   0.00052   0.00011   0.00207   0.00217   1.86557
    A2        1.87378   0.00036   0.00013   0.00311   0.00320   1.87698
    A3        1.86886  -0.00032  -0.00056  -0.00062  -0.00119   1.86767
    A4        1.91246  -0.00013   0.00040  -0.00312  -0.00271   1.90976
    A5        1.91313   0.00024  -0.00052   0.00278   0.00225   1.91538
    A6        1.95154   0.00025  -0.00012   0.00082   0.00070   1.95224
    A7        1.86056   0.00029   0.00067   0.00261   0.00328   1.86384
    A8        1.95468  -0.00032   0.00008  -0.00219  -0.00211   1.95257
    A9        1.77059  -0.00015   0.00007   0.00020   0.00025   1.77084
   A10        1.93516  -0.00004  -0.00053   0.00070   0.00017   1.93533
   A11        1.89026   0.00053   0.00119   0.00268   0.00388   1.89413
   A12        1.94178   0.00001   0.00021  -0.00170  -0.00149   1.94029
   A13        2.00534  -0.00039  -0.00076  -0.00155  -0.00231   2.00303
   A14        1.91551   0.00006  -0.00014  -0.00007  -0.00022   1.91529
   A15        1.77607  -0.00026  -0.00005   0.00083   0.00077   1.77684
   A16        1.93451   0.00000  -0.00060   0.00075   0.00016   1.93466
   A17        1.89127   0.00057   0.00125   0.00273   0.00398   1.89525
   A18        1.93781  -0.00009   0.00027  -0.00243  -0.00216   1.93566
   A19        2.00540  -0.00025  -0.00073  -0.00120  -0.00192   2.00347
   A20        1.91414   0.00004  -0.00012  -0.00037  -0.00049   1.91364
   A21        1.90584   0.00018   0.00040   0.00019   0.00060   1.90644
   A22        1.91610   0.00047   0.00028   0.00239   0.00268   1.91878
   A23        1.92447  -0.00015   0.00041  -0.00191  -0.00150   1.92296
   A24        1.90695  -0.00027  -0.00061   0.00013  -0.00048   1.90646
   A25        1.90262  -0.00008  -0.00056   0.00021  -0.00035   1.90226
   A26        1.90771  -0.00016   0.00006  -0.00101  -0.00095   1.90676
    D1       -0.29638  -0.00018   0.00048  -0.00807  -0.00758  -0.30396
    D2       -2.41619  -0.00022   0.00073  -0.00688  -0.00615  -2.42234
    D3        1.71536   0.00011   0.00071  -0.00392  -0.00321   1.71215
    D4        0.59754   0.00007   0.00015   0.00010   0.00025   0.59779
    D5       -1.46607   0.00016   0.00010   0.00166   0.00176  -1.46431
    D6        2.71450  -0.00022  -0.00016  -0.00039  -0.00056   2.71394
    D7       -0.16181   0.00021  -0.00057   0.01242   0.01185  -0.14996
    D8        1.93319  -0.00001  -0.00050   0.00868   0.00818   1.94137
    D9       -2.20840  -0.00006  -0.00002   0.00821   0.00819  -2.20021
   D10        0.51502  -0.00026   0.00075  -0.01259  -0.01184   0.50318
   D11       -1.54670  -0.00002   0.00073  -0.01057  -0.00984  -1.55654
   D12        2.63531  -0.00043   0.00045  -0.01231  -0.01186   2.62345
   D13        1.04524  -0.00011  -0.00075   0.00704   0.00628   1.05152
   D14        3.13552  -0.00005  -0.00108   0.00876   0.00768  -3.13999
   D15       -1.04483  -0.00004  -0.00056   0.00783   0.00726  -1.03757
   D16       -1.02401   0.00021  -0.00024   0.00932   0.00908  -1.01493
   D17        1.06627   0.00028  -0.00057   0.01104   0.01048   1.07675
   D18       -3.11408   0.00028  -0.00005   0.01011   0.01006  -3.10402
   D19       -3.11103  -0.00011  -0.00108   0.00692   0.00584  -3.10519
   D20       -1.02075  -0.00005  -0.00141   0.00865   0.00725  -1.01351
   D21        1.08209  -0.00004  -0.00089   0.00772   0.00683   1.08892
   D22       -0.67947   0.00040  -0.00037   0.00848   0.00811  -0.67136
   D23        1.37987   0.00022  -0.00097   0.00874   0.00776   1.38764
   D24       -2.71860  -0.00000  -0.00149   0.00525   0.00376  -2.71483
   D25        1.37936   0.00027  -0.00085   0.00866   0.00780   1.38716
   D26       -2.84448   0.00009  -0.00146   0.00892   0.00745  -2.83703
   D27       -0.65977  -0.00013  -0.00198   0.00543   0.00345  -0.65631
   D28       -2.71395   0.00004  -0.00148   0.00586   0.00439  -2.70956
   D29       -0.65460  -0.00014  -0.00208   0.00612   0.00404  -0.65057
   D30        1.53011  -0.00036  -0.00260   0.00264   0.00004   1.53015
         Item               Value     Threshold  Converged?
 Maximum Force            0.000933     0.000450     NO 
 RMS     Force            0.000275     0.000300     YES
 Maximum Displacement     0.024621     0.001800     NO 
 RMS     Displacement     0.006074     0.001200     NO 
 Predicted change in Energy=-2.174541D-05
 GradGradGradGradGradGradGradGradGradGradGradGradGradGradGradGradGradGrad

                          Input orientation:                          
 ---------------------------------------------------------------------
 Center     Atomic      Atomic             Coordinates (Angstroms)
 Number     Number       Type             X           Y           Z
 ---------------------------------------------------------------------
      1          8           0        0.073260    1.138971    0.001709
      2          8           0        0.029746   -1.125854    0.299190
      3          6           0       -0.741953    0.063615    0.435843
      4          6           0        1.408623    0.669235    0.002842
      5          6           0        1.217363   -0.787140   -0.397394
      6          6           0       -2.003172    0.017142   -0.402549
      7          1           0       -0.966380    0.176184    1.509892
      8          1           0        1.853092    0.750713    1.008474
      9          1           0        1.987977    1.267131   -0.706660
     10          1           0        1.073603   -0.880141   -1.485999
     11          1           0        2.016259   -1.460841   -0.072969
     12          1           0       -1.732342   -0.132428   -1.454220
     13          1           0       -2.640258   -0.810074   -0.073036
     14          1           0       -2.555219    0.958287   -0.307023
 ---------------------------------------------------------------------
                    Distance matrix (angstroms):
                    1          2          3          4          5
     1  O    0.000000
     2  O    2.284693   0.000000
     3  C    1.417546   1.424441   0.000000
     4  C    1.415573   2.282864   2.275795   0.000000
     5  C    2.275557   1.417882   2.292812   1.522432   0.000000
     6  C    2.394473   2.435495   1.515168   3.497130   3.319449
     7  H    2.069403   2.037982   1.103005   2.855685   3.055236
     8  H    2.081375   2.710937   2.744863   1.102491   2.178442
     9  H    2.045569   3.251581   3.194727   1.093858   2.215744
    10  H    2.700143   2.082525   2.807204   2.174730   1.101987
    11  H    3.246513   2.048646   3.192271   2.216347   1.094240
    12  H    2.645068   2.676994   2.142811   3.554062   3.200982
    13  H    3.341788   2.714257   2.150779   4.311328   3.871301
    14  H    2.652709   3.375379   2.154117   3.986428   4.157771
                    6          7          8          9         10
     6  C    0.000000
     7  H    2.181206   0.000000
     8  H    4.171317   2.920775   0.000000
     9  H    4.193356   3.851168   1.796265   0.000000
    10  H    3.383124   3.775277   3.080533   2.460533   0.000000
    11  H    4.295217   3.752524   2.467208   2.800750   1.795123
    12  H    1.096235   3.076995   4.438483   4.044550   2.904034
    13  H    1.094871   2.506039   4.878106   5.112418   3.974184
    14  H    1.095279   2.537178   4.605087   4.571184   4.235346
                   11         12         13         14
    11  H    0.000000
    12  H    4.210053   0.000000
    13  H    4.701771   1.786389   0.000000
    14  H    5.177391   1.784054   1.785801   0.000000
 Stoichiometry    C4H8O2
 Framework group  C1[X(C4H8O2)]
 Deg. of freedom    36
 Full point group                 C1      NOp   1
 Largest Abelian subgroup         C1      NOp   1
 Largest concise Abelian subgroup C1      NOp   1
                         Standard orientation:                         
 ---------------------------------------------------------------------
 Center     Atomic      Atomic             Coordinates (Angstroms)
 Number     Number       Type             X           Y           Z
 ---------------------------------------------------------------------
      1          8           0        0.080949   -1.145203    0.015291
      2          8           0        0.061819    1.106831   -0.369154
      3          6           0       -0.718975   -0.080276   -0.469981
      4          6           0        1.420462   -0.687440    0.013136
      5          6           0        1.237595    0.784823    0.354898
      6          6           0       -1.989976    0.009257    0.349942
      7          1           0       -0.931138   -0.232028   -1.541699
      8          1           0        1.876555   -0.811293   -0.982919
      9          1           0        1.985518   -1.262667    0.752291
     10          1           0        1.081257    0.920768    1.437235
     11          1           0        2.046563    1.438633    0.015100
     12          1           0       -1.730800    0.196720    1.398473
     13          1           0       -2.615354    0.828706   -0.019040
     14          1           0       -2.549381   -0.930044    0.283496
 ---------------------------------------------------------------------
 Rotational constants (GHZ):           6.6106453           3.5452713           2.6972790
 Standard basis: 6-311++G(d,p) (5D, 7F)
 There are   194 symmetry adapted cartesian basis functions of A   symmetry.
 There are   188 symmetry adapted basis functions of A   symmetry.
   188 basis functions,   288 primitive gaussians,   194 cartesian basis functions
    24 alpha electrons       24 beta electrons
       nuclear repulsion energy       263.9990498745 Hartrees.
 NAtoms=   14 NActive=   14 NUniq=   14 SFac= 1.00D+00 NAtFMM=   60 NAOKFM=F Big=F
 Integral buffers will be    131072 words long.
 Raffenetti 2 integral format.
 Two-electron integral symmetry is turned on.
 R6APFD:  NTU= -4 IXU= 1 FactS= 1.050
 Nuclear repulsion after empirical dispersion term =      263.9924861923 Hartrees.
 One-electron integrals computed using PRISM.
 NBasis=   188 RedAO= T EigKep=  3.98D-05  NBF=   188
 NBsUse=   188 1.00D-06 EigRej= -1.00D+00 NBFU=   188
 Initial guess from the checkpoint file:  "MEDI0134.chk"
 B after Tr=     0.000000   -0.000000   -0.000000
         Rot=    0.999999   -0.000240   -0.000303    0.001122 Ang=  -0.14 deg.
 ExpMin= 3.60D-02 ExpMax= 8.59D+03 ExpMxC= 1.30D+03 IAcc=3 IRadAn=         5 AccDes= 0.00D+00
 Harris functional with IExCor= 1009 and IRadAn=       5 diagonalized for initial guess.
 HarFok:  IExCor= 1009 AccDes= 0.00D+00 IRadAn=         5 IDoV= 1 UseB2=F ITyADJ=14
 ICtDFT=  3500011 ScaDFX=  1.000000  1.000000  1.000000  1.000000
 FoFCou: FMM=F IPFlag=           0 FMFlag=      100000 FMFlg1=           0
         NFxFlg=           0 DoJE=T BraDBF=F KetDBF=T FulRan=T
         wScrn=  0.000000 ICntrl=       500 IOpCl=  0 I1Cent=   200000004 NGrid=           0
         NMat0=    1 NMatS0=      1 NMatT0=    0 NMatD0=    1 NMtDS0=    0 NMtDT0=    0
 Petite list used in FoFCou.
 Requested convergence on RMS density matrix=1.00D-08 within  32 cycles.
 Requested convergence on MAX density matrix=1.00D-06.
 Requested convergence on             energy=1.00D-06.
 No special actions if energy rises.
 SCF Done:  E(RM08HX) =  -307.659916751     A.U. after    9 cycles
            NFock=  9  Conv=0.57D-08     -V/T= 2.0043
 QCSCF skips out because SCF is already converged.
 R6APFD:  NTU= -4 IXU= 1 FactS= 1.050
 Calling FoFJK, ICntrl=      2127 FMM=F ISym2X=0 I1Cent= 0 IOpClX= 0 NMat=1 NMatS=1 NMatT=0.
 ***** Axes restored to original set *****
 -------------------------------------------------------------------
 Center     Atomic                   Forces (Hartrees/Bohr)
 Number     Number              X              Y              Z
 -------------------------------------------------------------------
      1        8          -0.000324736   -0.000365201   -0.000026440
      2        8          -0.000120495   -0.000199982   -0.000567415
      3        6           0.000471111    0.000579589    0.000118263
      4        6           0.000028612    0.000230414    0.000303111
      5        6          -0.000259971   -0.000097887    0.000027291
      6        6           0.000114954   -0.000150846    0.000200953
      7        1           0.000057261   -0.000018986   -0.000007708
      8        1          -0.000029193    0.000072798   -0.000038427
      9        1           0.000060888   -0.000177723   -0.000038380
     10        1          -0.000007155   -0.000150780    0.000088303
     11        1           0.000176601    0.000216957    0.000056820
     12        1          -0.000078831   -0.000042399    0.000004766
     13        1          -0.000119138    0.000037261   -0.000108684
     14        1           0.000030092    0.000066784   -0.000012453
 -------------------------------------------------------------------
 Cartesian Forces:  Max     0.000579589 RMS     0.000200536

 GradGradGradGradGradGradGradGradGradGradGradGradGradGradGradGradGradGrad
 Berny optimization.
 Using GEDIIS/GDIIS optimizer.
 FormGI is forming the generalized inverse of G from B-inverse, IUseBI=4.
 Internal  Forces:  Max     0.000415114 RMS     0.000104095
 Search for a local minimum.
 Step number   4 out of a maximum of   80
 All quantities printed in internal units (Hartrees-Bohrs-Radians)
 Mixed Optimization -- En-DIIS/RFO-DIIS
 Swapping is turned off.
 Update second derivatives using D2CorX and points    1    2    3    4
 DE= -3.02D-05 DEPred=-2.17D-05 R= 1.39D+00
 TightC=F SS=  1.41D+00  RLast= 4.20D-02 DXNew= 8.4853D-01 1.2608D-01
 Trust test= 1.39D+00 RLast= 4.20D-02 DXMaxT set to 5.05D-01
 ITU=  1  1  1  0
     Eigenvalues ---    0.00427   0.00749   0.01282   0.04840   0.05205
     Eigenvalues ---    0.05389   0.05795   0.05810   0.05888   0.06331
     Eigenvalues ---    0.07340   0.09383   0.10285   0.10900   0.11277
     Eigenvalues ---    0.12152   0.15404   0.15710   0.16003   0.16951
     Eigenvalues ---    0.21876   0.25036   0.28072   0.31499   0.34061
     Eigenvalues ---    0.34181   0.34187   0.34237   0.34317   0.34440
     Eigenvalues ---    0.34497   0.34760   0.36833   0.37777   0.39691
     Eigenvalues ---    0.43047
 En-DIIS/RFO-DIIS/Sim-DIIS IScMMF=       -3 using points:     4    3
 RFO step:  Lambda=-3.36516853D-05.
 DidBck=F Rises=F RFO-DIIS coefs:    2.65118   -1.65118
 Iteration  1 RMS(Cart)=  0.01139338 RMS(Int)=  0.00007657
 Iteration  2 RMS(Cart)=  0.00009764 RMS(Int)=  0.00003143
 Iteration  3 RMS(Cart)=  0.00000000 RMS(Int)=  0.00003143
 Variable       Old X    -DE/DX   Delta X   Delta X   Delta X     New X
                                 (Linear)    (Quad)   (Total)
    R1        2.67877  -0.00042  -0.00487   0.00067  -0.00421   2.67457
    R2        2.67505  -0.00004  -0.00034  -0.00104  -0.00136   2.67368
    R3        2.69180   0.00011   0.00163  -0.00100   0.00060   2.69241
    R4        2.67941  -0.00016  -0.00040  -0.00078  -0.00119   2.67822
    R5        2.86325   0.00000   0.00180  -0.00151   0.00029   2.86354
    R6        2.08438  -0.00002   0.00029  -0.00004   0.00025   2.08463
    R7        2.87698   0.00006   0.00426  -0.00116   0.00312   2.88010
    R8        2.08341  -0.00004  -0.00113   0.00079  -0.00033   2.08307
    R9        2.06709  -0.00004  -0.00073   0.00029  -0.00043   2.06666
   R10        2.08245  -0.00007  -0.00111   0.00060  -0.00051   2.08195
   R11        2.06781   0.00001  -0.00066   0.00051  -0.00015   2.06766
   R12        2.07158  -0.00002  -0.00126   0.00074  -0.00052   2.07106
   R13        2.06901   0.00001  -0.00029   0.00025  -0.00004   2.06896
   R14        2.06978   0.00004  -0.00065   0.00064  -0.00001   2.06977
    A1        1.86557   0.00002   0.00358  -0.00338   0.00011   1.86569
    A2        1.87698  -0.00008   0.00529  -0.00269   0.00243   1.87941
    A3        1.86767   0.00009  -0.00197   0.00230   0.00026   1.86793
    A4        1.90976  -0.00007  -0.00447   0.00220  -0.00225   1.90750
    A5        1.91538   0.00001   0.00372  -0.00187   0.00186   1.91724
    A6        1.95224  -0.00003   0.00116  -0.00038   0.00081   1.95305
    A7        1.86384   0.00001   0.00542  -0.00440   0.00103   1.86487
    A8        1.95257  -0.00001  -0.00348   0.00199  -0.00151   1.95106
    A9        1.77084  -0.00005   0.00041  -0.00068  -0.00031   1.77053
   A10        1.93533  -0.00002   0.00029  -0.00002   0.00028   1.93561
   A11        1.89413   0.00012   0.00640  -0.00365   0.00278   1.89691
   A12        1.94029   0.00012  -0.00246   0.00316   0.00069   1.94098
   A13        2.00303  -0.00018  -0.00381   0.00044  -0.00335   1.99967
   A14        1.91529   0.00001  -0.00036   0.00043   0.00005   1.91534
   A15        1.77684   0.00002   0.00127   0.00091   0.00210   1.77894
   A16        1.93466  -0.00006   0.00026  -0.00068  -0.00040   1.93426
   A17        1.89525   0.00013   0.00657  -0.00341   0.00320   1.89844
[...]
 ! D1    D(4,1,3,2)            -41.3265         -DE/DX =    0.0                 !
 ! D2    D(4,1,3,6)           -161.4074         -DE/DX =    0.0                 !
 ! D3    D(4,1,3,7)             75.0026         -DE/DX =    0.0                 !
 ! D4    D(3,1,4,5)             34.7265         -DE/DX =    0.0                 !
 ! D5    D(3,1,4,8)            -84.1756         -DE/DX =    0.0                 !
 ! D6    D(3,1,4,9)            156.1951         -DE/DX =    0.0                 !
 ! D7    D(5,2,3,1)             30.4116         -DE/DX =    0.0                 !
 ! D8    D(5,2,3,6)            150.6957         -DE/DX =    0.0                 !
 ! D9    D(5,2,3,7)            -85.9684         -DE/DX =    0.0                 !
 ! D10   D(3,2,5,4)             -8.1479         -DE/DX =    0.0                 !
 ! D11   D(3,2,5,10)          -128.1587         -DE/DX =    0.0                 !
 ! D12   D(3,2,5,11)           112.4097         -DE/DX =    0.0                 !
 ! D13   D(1,3,6,12)            57.8559         -DE/DX =    0.0                 !
 ! D14   D(1,3,6,13)           177.5742         -DE/DX =    0.0                 !
 ! D15   D(1,3,6,14)           -62.2139         -DE/DX =    0.0                 !
 ! D16   D(2,3,6,12)           -59.089          -DE/DX =    0.0                 !
 ! D17   D(2,3,6,13)            60.6293         -DE/DX =    0.0                 !
 ! D18   D(2,3,6,14)          -179.1588         -DE/DX =    0.0                 !
 ! D19   D(7,3,6,12)           179.5409         -DE/DX =    0.0                 !
 ! D20   D(7,3,6,13)           -60.7408         -DE/DX =    0.0                 !
 ! D21   D(7,3,6,14)            59.4711         -DE/DX =    0.0                 !
 ! D22   D(1,4,5,2)            -16.3803         -DE/DX =    0.0                 !
 ! D23   D(1,4,5,10)           100.6981         -DE/DX =    0.0                 !
 ! D24   D(1,4,5,11)          -135.875          -DE/DX =    0.0                 !
 ! D25   D(8,4,5,2)            101.7271         -DE/DX =    0.0                 !
 ! D26   D(8,4,5,10)          -141.1945         -DE/DX =    0.0                 !
 ! D27   D(8,4,5,11)           -17.7676         -DE/DX =    0.0                 !
 ! D28   D(9,4,5,2)           -134.2579         -DE/DX =    0.0                 !
 ! D29   D(9,4,5,10)           -17.1794         -DE/DX =    0.0                 !
 ! D30   D(9,4,5,11)           106.2475         -DE/DX =    0.0                 !
 --------------------------------------------------------------------------------
 GradGradGradGradGradGradGradGradGradGradGradGradGradGradGradGradGradGrad


 ----------------------------------------------------------------------

 Electric dipole moment (input orientation):
 (Debye = 10**-18 statcoulomb cm , SI units = C m)
                  (au)            (Debye)         (10**-30 SI)
   Tot        0.533676D+00      0.135647D+01      0.452469D+01
   x          0.450668D+00      0.114548D+01      0.382093D+01
   y          0.364247D-01      0.925823D-01      0.308821D+00
   z          0.283515D+00      0.720624D+00      0.240374D+01

 Dipole polarizability, Alpha (input orientation).
 (esu units = cm**3 , SI units = C**2 m**2 J**-1)
 Alpha(0;0):
               (au)            (10**-24 esu)      (10**-40 SI)
   iso        0.542012D+02      0.803179D+01      0.893657D+01
   aniso      0.128515D+02      0.190440D+01      0.211893D+01
   xx         0.626779D+02      0.928791D+01      0.103342D+02
   yx        -0.582818D+00     -0.863648D-01     -0.960938D-01
   yy         0.503415D+02      0.745984D+01      0.830020D+01
   zx        -0.390689D+00     -0.578941D-01     -0.644159D-01
   zy         0.725923D+00      0.107571D+00      0.119689D+00
   zz         0.495841D+02      0.734760D+01      0.817531D+01

 ----------------------------------------------------------------------

 Dipole orientation:
     8          0.32028972          2.10836696         -0.01648830
     8          0.46323818         -2.10914787         -0.51120438
     6         -1.08052095          0.03782395         -0.92374696
     6          1.41231605          1.20927698          2.24795607
     6          1.95159069         -1.60155349          1.66420223
     6         -1.67374392          0.33816820         -3.69847719
     1         -2.81883730         -0.15581635          0.23373259
     1          0.06296628          1.40822798          3.82224485
     1          3.10403638          2.32216173          2.65861552
     1          3.93834887         -1.95024473          1.19116462
     1          1.40062484         -2.84617950          3.23190248
     1          0.09660306          0.53657316         -4.75111467
     1         -2.69129040         -1.32682146         -4.38419683
     1         -2.84330552          2.01820536         -3.99586696

 Electric dipole moment (dipole orientation):
 (Debye = 10**-18 statcoulomb cm , SI units = C m)
                  (au)            (Debye)         (10**-30 SI)
   Tot        0.533676D+00      0.135647D+01      0.452469D+01
   x          0.000000D+00      0.000000D+00      0.000000D+00
   y          0.000000D+00      0.000000D+00      0.000000D+00
   z          0.533676D+00      0.135647D+01      0.452469D+01

 Dipole polarizability, Alpha (dipole orientation).
 (esu units = cm**3 , SI units = C**2 m**2 J**-1)
 Alpha(0;0):
               (au)            (10**-24 esu)      (10**-40 SI)
   iso        0.542012D+02      0.803179D+01      0.893657D+01
   aniso      0.128515D+02      0.190440D+01      0.211893D+01
   xx         0.537452D+02      0.796421D+01      0.886138D+01
   yx        -0.121048D+01     -0.179375D+00     -0.199581D+00
   yy         0.502984D+02      0.745346D+01      0.829309D+01
   zx         0.601448D+01      0.891254D+00      0.991654D+00
   zy        -0.442407D+00     -0.655580D-01     -0.729431D-01
   zz         0.585599D+02      0.867769D+01      0.965523D+01

 ----------------------------------------------------------------------
 1\1\GINC-PITOMBA\Freq\RM08HX\6-311++G(d,p)\C4H8O2\VALTER\20-Sep-2025\0
 \\#N Geom=AllCheck Guess=TCheck SCRF=Check GenChk RM08HX/6-311++G(d,p)
  Freq\\MEDI0134\\0,1\O,0.0411940028,1.1053303889,-0.2239122848\O,-0.05
 54570903,-1.1404079626,-0.2745422256\C,-0.7190494387,0.0081132815,0.22
 17968674\C,1.3797682767,0.6910349591,-0.0428392365\C,1.3273655974,-0.8
 236926614,-0.3464122245\C,-2.1326994962,0.0781643566,-0.3040053692\H,-
 0.6894338176,-0.0176152035,1.3309885558\H,1.6977981633,0.8797314279,0.
 9955314045\H,2.0194220919,1.259292413,-0.7235654614\H,1.6846519168,-1.
 0643086874,-1.3546230888\H,1.896936399,-1.4127207085,0.3854713534\H,-2
 .1065030966,0.1095551741,-1.3982088655\H,-2.6936594412,-0.8047285617,0
 .0180673451\H,-2.6297340674,0.9770517842,0.07435323\\Version=ES64L-G16
 RevB.01\State=1-A\HF=-307.6608547\RMSD=3.400e-09\RMSF=3.679e-06\ZeroPo
 int=0.1204972\Thermal=0.1266151\Dipole=0.4506684,0.0364247,0.2835155\D
 ipoleDeriv=-1.0517571,-0.1313458,-0.0064427,-0.0674,-0.7423041,0.08041
 36,0.0824393,0.0555969,-0.4682838,-1.068593,0.2132681,0.1375262,0.1043
 463,-0.727303,-0.1207274,0.1836692,-0.1054234,-0.4466457,1.0361421,-0.
 0161438,-0.1345637,-0.0287417,0.9441883,0.0681389,-0.2158311,0.0459913
 ,0.7088145,0.6412917,0.0113253,0.0800614,-0.1237293,0.2253235,-0.00569
 83,0.0732479,0.0366868,0.3781584,0.7351892,-0.1138811,-0.0426045,0.072
 275,0.1999617,-0.0464343,-0.0559237,-0.0747058,0.3352822,-0.1561552,0.
 0083609,-0.0426233,0.0112645,0.068878,0.0032954,-0.0920421,0.0038529,0
 .0275656,-0.0638751,0.0064187,-0.0656184,0.0016858,-0.0208489,-0.00849
 89,0.0509736,-0.0019629,-0.2509131,-0.0244318,-0.0092448,-0.0178035,0.
 0091344,0.0139219,-0.0280955,-0.1164277,-0.0525434,-0.1508941,-0.02996
 03,-0.0484477,0.0378059,-0.0695602,0.011186,0.0349045,0.0889406,0.0706
 466,0.0023434,-0.0229984,0.020517,0.0404379,0.013222,0.0255616,-0.0216
 545,0.1007494,-0.065071,-0.1118068,-0.0725007,0.0612413,-0.0381607,0.0
 751685,-0.0140536,0.0467716,-0.1121191,0.0890614,-0.0474788,0.0466763,
 -0.0001379,0.0391157,0.0043851,0.0813374,0.0042294,-0.0285148,0.005869
 1,-0.0834105,0.0128621,-0.0392845,0.0061011,-0.09251,-0.0303573,0.0460
 202,0.0195663,0.057267,0.0574921,0.0181102,0.0373543,0.0067686,0.09045
 96,-0.0354914,-0.0526646,0.0212721,-0.0652653,0.0497767\Polar=62.67791
 8,-0.5828184,50.341518,-0.3906886,0.7259232,49.5840862\Quadrupole=3.86
 83241,-3.9507674,0.0824433,-0.162217,-0.5626351,0.0288295\PG=C01 [X(C4
 H8O2)]\NImag=0\\0.41657076,-0.00115543,0.35466840,-0.00447508,-0.09036
 810,0.15354360,0.00909575,0.00919687,-0.00778026,0.40296821,-0.0155165
 4,-0.08154383,-0.00946161,0.00287028,0.33975294,-0.00614422,0.00497468
 ,0.01659453,-0.05725710,0.08993940,0.12835076,-0.12049174,-0.02411221,
 0.02074362,-0.10918723,0.01325156,0.02207148,0.61605679,-0.05421527,-0
 .14582436,0.05178384,0.03922220,-0.14034548,-0.05528782,0.00380874,0.4
 0112921,0.03191410,0.04919645,-0.10557073,0.02892464,-0.04860278,-0.09
 771842,0.01753421,-0.00767311,0.59471699,-0.20547844,0.02257913,-0.019
 13525,-0.02777507,-0.02116495,-0.00467716,-0.05913936,-0.02929727,0.00
 223740,0.54091413,0.06080097,-0.09584389,0.01688973,-0.02608599,-0.026
 38923,0.00060913,-0.02647049,0.00867825,-0.00422517,0.10128624,0.48410
 440,-0.02846850,0.01820982,-0.07737998,0.00087497,0.00385482,0.0017840
 5,0.01549101,-0.00368739,0.00592926,-0.02918822,-0.03562196,0.59675329
 ,-0.02921313,0.02147312,0.00778855,-0.20461526,-0.01387828,0.00957645,
 -0.04346643,0.03486746,0.00747790,-0.06378064,-0.01302977,-0.00005942,
 0.50325450,0.02597393,-0.03372825,0.00091180,-0.04754621,-0.09147996,-
 0.01079771,0.02567377,0.01096888,0.00200444,0.00445202,-0.16369944,-0.
 02722694,-0.09603654,0.49037322,-0.00164856,0.00609592,0.00627832,0.00
 835744,-0.01240377,-0.06410880,0.01640188,0.00420120,-0.00376934,0.001
 16619,-0.02309234,-0.09201773,-0.00757442,-0.00364043,0.60629167,-0.00
 946089,0.00224708,-0.00362524,-0.01222226,0.00237501,-0.00192412,-0.19
 606785,0.00496246,-0.05009972,-0.00024302,-0.00208565,0.00020043,0.000
 11402,0.00171940,-0.00086049,0.48641147,-0.02901038,0.00520051,-0.0083
 2695,0.03145417,0.00047214,0.00490020,0.00647139,-0.07842982,0.0039309
 0,-0.00197909,-0.00587351,0.00120134,0.00112248,-0.00553477,0.00059792
 ,0.00212403,0.57854839,0.01498155,-0.00036338,0.00699916,0.01674860,-0
 .00122208,0.00752154,-0.06584883,0.00354265,-0.10988244,0.00207822,0.0
 0097537,-0.00060796,0.00258575,-0.00168474,-0.00020015,-0.03305360,0.0
 0185494,0.57323275,-0.00321689,-0.01081291,0.02364877,0.00009502,0.009
 84752,0.02181565,-0.06005147,-0.00004446,-0.02092543,0.00324780,-0.000
 81315,0.00257365,0.00194017,0.00015717,0.00035714,-0.00028435,0.001052
 77,-0.03103702,0.06259209,-0.01303341,-0.01330373,0.03624246,0.0116361
 5,-0.01375509,-0.03526293,-0.00002608,-0.04091976,0.00544414,0.0042907
 0,-0.00075583,0.00160940,-0.00399120,-0.00089003,-0.00189349,0.0001037
 0,0.00342603,0.00128267,0.00033720,0.06428742,0.00713817,0.01364818,-0
 .01178597,0.00755511,-0.01433713,-0.01141525,-0.01760738,0.00696817,-0
 .27401252,-0.00166300,0.00005045,0.00037610,-0.00160979,-0.00077651,-0
 .00068432,-0.00084433,0.00052626,-0.00940375,0.00646193,-0.00652535,0.
 30635894,-0.02691093,-0.00133343,-0.03378080,0.00077470,-0.00070396,0.
 00080216,0.00277785,0.00479956,-0.00489068,-0.06379816,-0.01568635,-0.
 05161401,0.00124428,0.00048315,-0.00023874,-0.00061196,-0.00047153,0.0
 0069500,0.00019573,-0.00054486,0.00151680,0.07809148,0.00928527,0.0038
 7273,0.01288605,-0.00085234,-0.00040342,0.00027930,0.00007918,-0.00139
 175,-0.00029783,-0.01584351,-0.05825029,-0.04122233,-0.00522468,-0.006
 89135,-0.03150896,0.00001230,0.00025113,0.00008615,-0.00014074,0.00043
 798,0.00000990,0.00959850,0.06258399,-0.01054081,0.00392836,0.00305612
 ,0.00005134,-0.00051564,-0.00034226,0.00117239,0.00113777,0.00011217,-
 0.05476428,-0.04170046,-0.27436690,-0.00002325,-0.00024994,-0.00458660
 ,-0.00014426,-0.00013187,0.00043203,-0.00088445,-0.00109408,0.00006335
 ,0.06999424,0.04472987,0.29079179,-0.03072694,-0.01927699,0.01876939,0
 .00086265,0.00094081,-0.00040609,-0.00441387,0.00568470,-0.00024141,-0
 .12798114,-0.07574489,0.09169003,0.00238619,-0.00007289,-0.00073698,-0
 .00045355,-0.00150185,0.00067951,-0.00002995,-0.00039529,0.00042355,0.
 00715939,0.00386876,-0.00476473,0.15353189,0.01091675,0.00933491,-0.00
 912844,-0.00382279,-0.00306100,0.00025907,0.00242404,-0.00436946,-0.00
 060302,-0.08463574,-0.12541523,0.09219262,-0.01515503,-0.00920690,0.01
 879508,0.00005010,0.00063602,-0.00001928,-0.00009478,0.00016845,0.0000
 4237,0.00320196,0.00403535,-0.00455784,0.08671496,0.12927641,-0.003385
 01,-0.00407218,0.00642718,-0.00233064,-0.00177195,0.00000628,-0.001412
 74,-0.00187499,0.00015732,0.10123952,0.09263183,-0.16351456,-0.0057074
 2,-0.00415270,0.00560509,-0.00023960,-0.00012736,0.00036008,-0.0004088
 9,-0.00029268,0.00031867,0.01677912,0.01578023,-0.01762709,-0.10466393
 ,-0.09583130,0.16699643,0.00185972,0.00057491,-0.00101392,-0.03054181,
 0.00892830,0.03154974,-0.00248062,-0.00686863,0.00257667,0.00058936,-0
 .00109665,-0.00313687,-0.06441064,0.01793761,0.06480601,-0.00010714,0.
 00073892,0.00050232,-0.00042964,0.00108727,0.00054594,0.00043230,-0.00
 102713,-0.00037790,0.00060495,0.00000780,-0.00018145,0.08746130,0.0023
 2292,0.00015801,0.00079358,-0.00692174,0.00685983,0.00700429,-0.000326
 03,-0.00397725,0.00036707,0.00559300,-0.00464406,-0.03061888,0.0208539
 6,-0.06423614,-0.05129063,0.00006937,0.00012676,-0.00005015,0.00005125
 ,0.00030000,0.00033259,0.00034277,-0.00520010,-0.00096359,-0.00025409,
 0.00111402,0.00024036,-0.01730165,0.06453495,0.00081859,0.00005912,0.0
 0009404,0.00621730,0.00065030,0.00672277,-0.00150774,0.00167987,0.0000
 8707,-0.00138558,-0.00032343,-0.00289185,0.07151432,-0.05213408,-0.279
 19481,0.00000181,-0.00007860,-0.00003815,-0.00014416,0.00008625,-0.000
 04684,0.00011843,-0.00086652,0.00124422,-0.00013134,-0.00058386,0.0009
 2500,-0.08120250,0.05689776,0.29239024,0.00080806,-0.00073761,0.000050
 24,-0.02663971,0.01399226,-0.01502798,-0.00147017,-0.00379899,-0.00494
 144,0.00384020,0.00014225,0.00136308,-0.10337275,0.06620917,-0.0797985
 9,-0.00083432,0.00148538,0.00085017,0.00011686,0.00037318,0.00078934,0
 .00068932,0.00020237,0.00019136,-0.00051656,0.00026825,0.00029313,0.00
 725444,-0.00444583,0.00566988,0.12041587,0.00267481,-0.00424853,-0.001
 36292,-0.00894114,0.00860570,-0.00707835,-0.00143803,-0.00251974,0.000
 01331,0.01416721,-0.01228947,0.02113120,0.06966490,-0.12588643,0.09416
 401,0.00003173,0.00039076,-0.00006763,0.00022702,0.00000226,-0.0000795
 1,0.00028381,0.00103478,-0.00064074,-0.00005174,-0.00254369,-0.0005835
 3,-0.00297936,0.00492776,-0.00536976,-0.07360487,0.13250548,0.00181365
 ,-0.00164572,0.00007178,0.00061244,-0.00586827,0.01029674,0.00026468,-
 0.00105621,-0.00010770,0.00433908,-0.00576076,0.00503351,-0.08364180,0
 .09728207,-0.17407785,0.00010958,0.00003272,-0.00010566,-0.00036356,0.
 00038657,-0.00029826,0.00033851,0.00018856,0.00125667,-0.00026941,-0.0
 0062362,0.00042334,-0.01376803,0.01724800,-0.01929450,0.09052180,-0.10
 017845,0.17679730,0.00272185,0.00071754,0.00151340,0.00276962,-0.00109
 885,0.00179954,-0.00105195,0.00120838,-0.03795101,-0.00010287,0.000014
 80,0.00001462,0.00007757,-0.00015085,0.00002510,-0.04684742,-0.0001092
 4,0.01140675,-0.00570295,0.00020495,-0.00152104,0.00023250,0.00000337,
 0.00020527,0.00000352,0.00002591,0.00009968,-0.00004833,0.00001386,0.0
 0000573,0.00018806,-0.00001248,0.00000829,0.04953479,0.00030743,-0.000
 02328,-0.00069619,-0.00046879,-0.00001290,0.00037087,-0.00015580,-0.00
 135426,0.00175487,-0.00039800,0.00011676,0.00008058,0.00026599,0.00008
 122,-0.00011662,0.00003314,-0.04590047,0.00772457,0.00031336,0.0006793
 9,0.00009282,0.00003290,-0.00010348,0.00007044,0.00001287,-0.00002829,
 0.00000963,-0.00000893,-0.00000138,-0.00000670,-0.00008830,-0.00004948
 ,-0.00003072,0.00001307,0.04434861,0.00041794,-0.00031503,0.00159460,0
 .00050999,0.00022007,0.00192840,0.00076995,0.00030497,-0.01618376,0.00
 010350,-0.00007568,0.00022524,0.00008581,0.00004728,0.00007275,0.00746
 819,0.00786663,-0.31724993,-0.00251857,0.00008044,0.00066862,0.0002393
 6,-0.00001427,0.00002262,-0.00008446,0.00002882,0.00000468,-0.00009827
 ,0.00000866,0.00000620,0.00009077,0.00000658,-0.00001678,-0.00611993,-
 0.00876498,0.34320607,-0.00784807,0.00151876,-0.00266841,0.00225281,0.
 00067782,-0.00034549,-0.01145116,-0.02765261,0.01344297,0.00004058,-0.
 00174132,0.00029648,-0.00033867,-0.00040341,0.00011739,-0.11735923,-0.
 11058586,0.03920174,0.00075266,0.00047361,-0.00056224,-0.00030541,0.00
 009816,-0.00010853,-0.00052794,0.00018938,-0.00006525,0.00009659,0.000
 04649,-0.00001767,0.00010803,0.00009821,0.00002412,-0.00081550,0.00095
 091,-0.00044327,0.12671000,0.00059364,0.00090013,-0.00023304,-0.000175
 88,0.00032558,-0.00009533,0.00293084,0.00047178,-0.00050852,0.00064613
 ,0.00017254,0.00004705,-0.00029657,0.00012827,-0.00010011,-0.11421439,
 -0.22391033,0.06554188,-0.00058418,0.00017744,-0.00040951,-0.00002737,
 0.00002933,-0.00003673,0.00006212,0.00002326,0.00003312,-0.00001500,0.
 00002075,0.00000887,-0.00004595,0.00001605,-0.00000404,0.00128568,0.00
 023318,-0.00095268,0.12382144,0.23946887,-0.00316862,0.00050908,-0.000
 07014,0.00069012,-0.00019492,-0.00005949,-0.00445074,-0.01141356,0.002
 84922,-0.00047054,-0.00052674,0.00078386,-0.00000078,-0.00014713,-0.00
 011186,0.04097009,0.06676386,-0.07063693,0.00069313,-0.00018429,-0.000
 05547,0.00007756,-0.00004866,-0.00003375,-0.00029829,0.00006452,-0.000
 05663,0.00001174,0.00004060,-0.00000316,-0.00000308,0.00002175,0.00001
 648,0.01631338,0.02564944,-0.00648639,-0.04315917,-0.07148424,0.071563
 58,0.00229088,-0.00087884,-0.00003502,-0.00783742,-0.00052097,-0.00183
 286,-0.00956280,0.02732373,0.01494181,-0.00033339,0.00051002,-0.000037
 25,0.00018077,0.00160367,-0.00037337,-0.10203350,0.09920881,0.04020985
 ,0.00077492,-0.00051592,-0.00062309,0.00002891,-0.00005951,-0.00000640
 ,0.00010137,-0.00009082,-0.00001652,-0.00028048,-0.00004430,0.00004293
 ,-0.00058733,-0.00012007,0.00001065,-0.00095889,-0.00080985,-0.0004209
 9,0.00868530,-0.01398053,-0.00720480,0.10953166,0.00005530,0.00038117,
 0.00006979,0.00043519,0.00097471,0.00018520,-0.00211088,-0.00211622,-0
 .00080076,0.00030412,0.00008899,0.00005067,-0.00063584,0.00000166,0.00
 019221,0.10257173,-0.22940284,-0.07760098,0.00050393,0.00014547,0.0004
 5726,0.00002484,-0.00000490,0.00002443,0.00001352,0.00003614,0.0000115
 2,0.00002252,0.00001685,-0.00001923,0.00004870,0.00005456,0.00002987,-
 0.00211613,0.00201438,0.00155920,0.01250840,-0.01805684,-0.00904971,-0
 .11162543,0.24586687,0.00074681,0.00014281,0.00014751,-0.00317394,-0.0
 0028644,0.00043917,-0.00362180,0.01137460,0.00339291,0.00012011,0.0001
 7003,-0.00010633,-0.00041191,0.00056459,0.00050363,0.04204126,-0.07901
 000,-0.08042057,0.00073181,0.00012088,-0.00008330,-0.00003693,-0.00000
 149,-0.00002237,0.00003415,-0.00003513,-0.00002579,-0.00021347,-0.0000
 0966,-0.00000024,-0.00004870,0.00002403,0.00000493,0.01420022,-0.02613
 801,-0.00779233,-0.00571268,0.00819326,0.00230069,-0.04465493,0.084890
 54,0.08166210\\0.00000093,-0.00000139,0.00000057,-0.00000314,0.0000020
 3,-0.00000680,-0.00000302,0.00000135,0.00000620,0.00000377,-0.00000318
 ,0.00000016,0.00000399,0.00000487,0.00000297,-0.00000312,-0.00000281,-
 0.00001036,-0.00000032,-0.00000590,-0.00000229,0.00000068,-0.00000442,
 0.00000265,-0.00000139,0.00000252,0.00000356,0.00000005,0.00000459,-0.
 00000415,0.00000004,-0.00000206,-0.00000606,0.00000325,0.00000249,0.00
 000356,-0.00000154,0.00000216,0.00000357,-0.00000016,-0.00000025,0.000
 00642\\\@


 TIME GOES, YOU SAY?  AH NO!
 ALAS, TIME STAYS, WE GO.
    -- A. DOBSON (1840-1921)
 Job cpu time:       0 days  0 hours 57 minutes 24.9 seconds.
 Elapsed time:       0 days  0 hours  3 minutes 36.8 seconds.
 File lengths (MBytes):  RWF=     52 Int=      0 D2E=      0 Chk=      4 Scr=      1
 Normal termination of Gaussian 16 at Sat Sep 20 17:01:02 2025.
