 Entering Gaussian System, Link 0=g16
 Input=MELA0066.gjf
 Output=MELA0066.log
 Initial command:
 /usr/local/g16/l1.exe "/dados_01/scratch/Gau-2515374.inp" -scrdir="/dados_01/scratch/"
 Entering Link 1 = /usr/local/g16/l1.exe PID=   2515375.
  
 Copyright (c) 1988-2017, Gaussian, Inc.  All Rights Reserved.
  
 This is part of the Gaussian(R) 16 program.  It is based on
 the Gaussian(R) 09 system (copyright 2009, Gaussian, Inc.),
 the Gaussian(R) 03 system (copyright 2003, Gaussian, Inc.),
 the Gaussian(R) 98 system (copyright 1998, Gaussian, Inc.),
 the Gaussian(R) 94 system (copyright 1995, Gaussian, Inc.),
 the Gaussian 92(TM) system (copyright 1992, Gaussian, Inc.),
 the Gaussian 90(TM) system (copyright 1990, Gaussian, Inc.),
 the Gaussian 88(TM) system (copyright 1988, Gaussian, Inc.),
 the Gaussian 86(TM) system (copyright 1986, Carnegie Mellon
 University), and the Gaussian 82(TM) system (copyright 1983,
 Carnegie Mellon University). Gaussian is a federally registered
 trademark of Gaussian, Inc.
  
 This software contains proprietary and confidential information,
 including trade secrets, belonging to Gaussian, Inc.
  
 This software is provided under written license and may be
 used, copied, transmitted, or stored only in accord with that
 written license.
  
 The following legend is applicable only to US Government
 contracts under FAR:
  
                    RESTRICTED RIGHTS LEGEND
  
 Use, reproduction and disclosure by the US Government is
 subject to restrictions as set forth in subparagraphs (a)
 and (c) of the Commercial Computer Software - Restricted
 Rights clause in FAR 52.227-19.
  
 Gaussian, Inc.
 340 Quinnipiac St., Bldg. 40, Wallingford CT 06492
  
  
 ---------------------------------------------------------------
 Warning -- This program may not be used in any manner that
 competes with the business of Gaussian, Inc. or will provide
 assistance to any competitor of Gaussian, Inc.  The licensee
 of this program is prohibited from giving any competitor of
 Gaussian, Inc. access to this program.  By using this program,
 the user acknowledges that Gaussian, Inc. is engaged in the
 business of creating and licensing software in the field of
 computational chemistry and represents and warrants to the
 licensee that it is not a competitor of Gaussian, Inc. and that
 it will not use this program in any manner prohibited above.
 ---------------------------------------------------------------
  

 Cite this work as:
 Gaussian 16, Revision B.01,
 M. J. Frisch, G. W. Trucks, H. B. Schlegel, G. E. Scuseria, 
 M. A. Robb, J. R. Cheeseman, G. Scalmani, V. Barone, 
 G. A. Petersson, H. Nakatsuji, X. Li, M. Caricato, A. V. Marenich, 
 J. Bloino, B. G. Janesko, R. Gomperts, B. Mennucci, H. P. Hratchian, 
 J. V. Ortiz, A. F. Izmaylov, J. L. Sonnenberg, D. Williams-Young, 
 F. Ding, F. Lipparini, F. Egidi, J. Goings, B. Peng, A. Petrone, 
 T. Henderson, D. Ranasinghe, V. G. Zakrzewski, J. Gao, N. Rega, 
 G. Zheng, W. Liang, M. Hada, M. Ehara, K. Toyota, R. Fukuda, 
 J. Hasegawa, M. Ishida, T. Nakajima, Y. Honda, O. Kitao, H. Nakai, 
 T. Vreven, K. Throssell, J. A. Montgomery, Jr., J. E. Peralta, 
 F. Ogliaro, M. J. Bearpark, J. J. Heyd, E. N. Brothers, K. N. Kudin, 
 V. N. Staroverov, T. A. Keith, R. Kobayashi, J. Normand, 
 K. Raghavachari, A. P. Rendell, J. C. Burant, S. S. Iyengar, 
 J. Tomasi, M. Cossi, J. M. Millam, M. Klene, C. Adamo, R. Cammi, 
 J. W. Ochterski, R. L. Martin, K. Morokuma, O. Farkas, 
 J. B. Foresman, and D. J. Fox, Gaussian, Inc., Wallingford CT, 2016.
 
 ******************************************
 Gaussian 16:  ES64L-G16RevB.01 20-Dec-2017
                 7-Oct-2025 
 ******************************************
 %nprocs=16
 Will use up to   16 processors via shared memory.
 %mem=40GB
 %chk=MELA0066.chk
 ----------------------------------------------------------------------
 # opt freq=noraman M08HX/6-311++G** scf=xqc Empiricaldispersion=pfd In
 t(Grid=ultraFine)
 ----------------------------------------------------------------------
 1/18=20,19=15,26=4,38=1/1,3;
 2/9=110,12=2,17=6,18=5,40=1/2;
 3/5=4,6=6,7=1111,11=2,25=1,30=1,71=1,74=-74,75=-5,124=11/1,2,3;
 4//1;
 5/5=2,8=3,13=1,38=5/2,8;
 6/7=2,8=2,9=2,10=2,28=1/1;
 7//1,2,3,16;
 1/18=20,19=15,26=4/3(2);
 2/9=110/2;
 99//99;
 2/9=110/2;
 3/5=4,6=6,7=1111,11=2,25=1,30=1,71=1,74=-74,75=-5,124=11/1,2,3;
 4/5=5,16=3,69=1/1;
 5/5=2,8=3,13=1,38=5/2,8;
 7//1,2,3,16;
 1/18=20,19=15,26=4/3(-5);
 2/9=110/2;
 6/7=2,8=2,9=2,10=2,19=2,28=1/1;
 99/9=1/99;
 --------
 MELA0066
 --------
 Symbolic Z-matrix:
 Charge =  0 Multiplicity = 1
 O                    -2.0391    0.8047    0.2028 
 O                     1.2321   -0.6471    0.2742 
 O                     0.4992    1.4307   -0.4075 
 C                    -1.0838   -0.2272    0.3943 
 C                    -1.4765   -1.4028   -0.4832 
 C                     0.2859    0.3054    0.0248 
 C                     2.5823   -0.2636   -0.0054 
 H                    -1.0899   -0.4955    1.4551 
 H                    -0.813    -2.2593   -0.3285 
 H                    -2.5045   -1.7155   -0.271 
 H                    -1.4374   -1.1334   -1.5449 
 H                    -2.0827    1.0057   -0.7478 
 H                     2.8701    0.5895    0.6163 
 H                     2.6958   -0.0248   -1.0671 
 H                     3.2326   -1.1087    0.2356 
 

 GradGradGradGradGradGradGradGradGradGradGradGradGradGradGradGradGradGrad
 Berny optimization.
 Initialization pass.
                           ----------------------------
                           !    Initial Parameters    !
                           ! (Angstroms and Degrees)  !
 --------------------------                            --------------------------
 ! Name  Definition              Value          Derivative Info.                !
 --------------------------------------------------------------------------------
 ! R1    R(1,4)                  1.4192         estimate D2E/DX2                !
 ! R2    R(1,12)                 0.9726         estimate D2E/DX2                !
 ! R3    R(2,6)                  1.3656         estimate D2E/DX2                !
 ! R4    R(2,7)                  1.4312         estimate D2E/DX2                !
 ! R5    R(3,6)                  1.2242         estimate D2E/DX2                !
 ! R6    R(4,5)                  1.5186         estimate D2E/DX2                !
 ! R7    R(4,6)                  1.5153         estimate D2E/DX2                !
 ! R8    R(4,8)                  1.0942         estimate D2E/DX2                !
 ! R9    R(5,9)                  1.0944         estimate D2E/DX2                !
 ! R10   R(5,10)                 1.0953         estimate D2E/DX2                !
 ! R11   R(5,11)                 1.096          estimate D2E/DX2                !
 ! R12   R(7,13)                 1.0941         estimate D2E/DX2                !
 ! R13   R(7,14)                 1.0941         estimate D2E/DX2                !
 ! R14   R(7,15)                 1.0932         estimate D2E/DX2                !
 ! A1    A(4,1,12)             108.1995         estimate D2E/DX2                !
 ! A2    A(6,2,7)              115.5379         estimate D2E/DX2                !
 ! A3    A(1,4,5)              108.1094         estimate D2E/DX2                !
 ! A4    A(1,4,6)              108.6614         estimate D2E/DX2                !
 ! A5    A(1,4,8)              107.7791         estimate D2E/DX2                !
 ! A6    A(5,4,6)              111.4025         estimate D2E/DX2                !
 ! A7    A(5,4,8)              111.649          estimate D2E/DX2                !
 ! A8    A(6,4,8)              109.1238         estimate D2E/DX2                !
 ! A9    A(4,5,9)              111.5541         estimate D2E/DX2                !
 ! A10   A(4,5,10)             110.5956         estimate D2E/DX2                !
 ! A11   A(4,5,11)             111.1136         estimate D2E/DX2                !
 ! A12   A(9,5,10)             108.5543         estimate D2E/DX2                !
 ! A13   A(9,5,11)             107.918          estimate D2E/DX2                !
 ! A14   A(10,5,11)            106.9376         estimate D2E/DX2                !
 ! A15   A(2,6,3)              125.7979         estimate D2E/DX2                !
 ! A16   A(2,6,4)              109.6708         estimate D2E/DX2                !
 ! A17   A(3,6,4)              124.5183         estimate D2E/DX2                !
 ! A18   A(2,7,13)             110.2476         estimate D2E/DX2                !
 ! A19   A(2,7,14)             110.2381         estimate D2E/DX2                !
 ! A20   A(2,7,15)             108.1179         estimate D2E/DX2                !
 ! A21   A(13,7,14)            110.7267         estimate D2E/DX2                !
 ! A22   A(13,7,15)            108.7238         estimate D2E/DX2                !
 ! A23   A(14,7,15)            108.7188         estimate D2E/DX2                !
 ! D1    D(12,1,4,5)           -55.3437         estimate D2E/DX2                !
 ! D2    D(12,1,4,6)            65.6999         estimate D2E/DX2                !
 ! D3    D(12,1,4,8)          -176.173          estimate D2E/DX2                !
 ! D4    D(7,2,6,3)             -0.0069         estimate D2E/DX2                !
 ! D5    D(7,2,6,4)           -178.7417         estimate D2E/DX2                !
 ! D6    D(6,2,7,13)            61.2624         estimate D2E/DX2                !
 ! D7    D(6,2,7,14)           -61.2879         estimate D2E/DX2                !
 ! D8    D(6,2,7,15)           179.9929         estimate D2E/DX2                !
 ! D9    D(1,4,5,9)           -176.1548         estimate D2E/DX2                !
 ! D10   D(1,4,5,10)           -55.2291         estimate D2E/DX2                !
 ! D11   D(1,4,5,11)            63.3732         estimate D2E/DX2                !
 ! D12   D(6,4,5,9)             64.5201         estimate D2E/DX2                !
 ! D13   D(6,4,5,10)          -174.5543         estimate D2E/DX2                !
 ! D14   D(6,4,5,11)           -55.952          estimate D2E/DX2                !
 ! D15   D(8,4,5,9)            -57.7663         estimate D2E/DX2                !
 ! D16   D(8,4,5,10)            63.1594         estimate D2E/DX2                !
 ! D17   D(8,4,5,11)          -178.2384         estimate D2E/DX2                !
 ! D18   D(1,4,6,2)            176.5512         estimate D2E/DX2                !
 ! D19   D(1,4,6,3)             -2.2033         estimate D2E/DX2                !
 ! D20   D(5,4,6,2)            -64.4524         estimate D2E/DX2                !
 ! D21   D(5,4,6,3)            116.793          estimate D2E/DX2                !
 ! D22   D(8,4,6,2)             59.2787         estimate D2E/DX2                !
 ! D23   D(8,4,6,3)           -119.4759         estimate D2E/DX2                !
 --------------------------------------------------------------------------------
 Trust Radius=3.00D-01 FncErr=1.00D-07 GrdErr=1.00D-06 EigMax=2.50D+02 EigMin=1.00D-04
 Number of steps in this run=     70 maximum allowed number of steps=    100.
 GradGradGradGradGradGradGradGradGradGradGradGradGradGradGradGradGradGrad

                          Input orientation:                          
 ---------------------------------------------------------------------
 Center     Atomic      Atomic             Coordinates (Angstroms)
 Number     Number       Type             X           Y           Z
 ---------------------------------------------------------------------
      1          8           0       -2.039100    0.804700    0.202800
      2          8           0        1.232100   -0.647100    0.274200
      3          8           0        0.499200    1.430700   -0.407500
      4          6           0       -1.083800   -0.227200    0.394300
      5          6           0       -1.476500   -1.402800   -0.483200
      6          6           0        0.285900    0.305400    0.024800
      7          6           0        2.582300   -0.263600   -0.005400
      8          1           0       -1.089900   -0.495500    1.455100
      9          1           0       -0.813000   -2.259300   -0.328500
     10          1           0       -2.504500   -1.715500   -0.271000
     11          1           0       -1.437400   -1.133400   -1.544900
     12          1           0       -2.082700    1.005700   -0.747800
     13          1           0        2.870100    0.589500    0.616300
     14          1           0        2.695800   -0.024800   -1.067100
     15          1           0        3.232600   -1.108700    0.235600
 ---------------------------------------------------------------------
                    Distance matrix (angstroms):
                    1          2          3          4          5
     1  O    0.000000
     2  O    3.579605   0.000000
     3  O    2.684643   2.306320   0.000000
     4  C    1.419186   2.356721   2.428457   0.000000
     5  C    2.379111   2.912259   3.455118   1.518636   0.000000
     6  C    2.384661   1.365559   1.224206   1.515345   2.506405
     7  C    4.747836   1.431184   2.715077   3.688004   4.242632
     8  H    2.039548   2.609443   3.115247   1.094221   2.174778
     9  H    3.342708   2.672989   3.917169   2.173753   1.094421
    10  H    2.606241   3.924398   4.351944   2.162418   1.095260
    11  H    2.678195   3.266779   3.408622   2.169499   1.096044
    12  H    0.972596   3.842412   2.638681   1.955054   2.497672
    13  H    4.931282   2.080686   2.716054   4.043465   4.906230
    14  H    4.971921   2.080567   2.716359   4.057343   4.432596
    15  H    5.608297   2.053428   3.785975   4.408349   4.772713
                    6          7          8          9         10
     6  C    0.000000
     7  C    2.366036   0.000000
     8  H    2.140099   3.958774   0.000000
     9  H    2.812488   3.951617   2.523667   0.000000
    10  H    3.458015   5.296611   2.543406   1.777694   0.000000
    11  H    2.739319   4.391424   3.086693   1.771202   1.760785
    12  H    2.587972   4.891268   2.844648   3.528197   2.794670
    13  H    2.666210   1.094129   4.190753   4.751161   5.914952
    14  H    2.666251   1.094127   4.573246   4.224949   5.525881
    15  H    3.275234   1.093236   4.532902   4.243698   5.791301
                   11         12         13         14         15
    11  H    0.000000
    12  H    2.372241   0.000000
    13  H    5.117981   5.154049   0.000000
    14  H    4.305883   4.898770   1.800439   0.000000
    15  H    4.997969   5.804324   1.777701   1.777645   0.000000
 Stoichiometry    C4H8O3
 Framework group  C1[X(C4H8O3)]
 Deg. of freedom    39
 Full point group                 C1      NOp   1
 Largest Abelian subgroup         C1      NOp   1
 Largest concise Abelian subgroup C1      NOp   1
                         Standard orientation:                         
 ---------------------------------------------------------------------
 Center     Atomic      Atomic             Coordinates (Angstroms)
 Number     Number       Type             X           Y           Z
 ---------------------------------------------------------------------
      1          8           0       -2.032602   -0.859037   -0.255418
      2          8           0        1.227172    0.619633   -0.286752
      3          8           0        0.500482   -1.458089    0.401800
      4          6           0       -1.082890    0.179135   -0.440719
      5          6           0       -1.499631    1.359194    0.419539
      6          6           0        0.284954   -0.338549   -0.044136
      7          6           0        2.575753    0.250068    0.018272
      8          1           0       -1.073863    0.437856   -1.503875
      9          1           0       -0.840817    2.219844    0.267876
     10          1           0       -2.526581    1.661289    0.187793
     11          1           0       -1.475669    1.099659    1.484142
     12          1           0       -2.090076   -1.051871    0.696136
     13          1           0        2.880751   -0.606109   -0.590872
     14          1           0        2.673848    0.021759    1.083808
     15          1           0        3.222875    1.098435   -0.219787
 ---------------------------------------------------------------------
 Rotational constants (GHZ):           4.8490074           1.8518660           1.4645527
 Standard basis: 6-311++G(d,p) (5D, 7F)
 There are   217 symmetry adapted cartesian basis functions of A   symmetry.
 There are   210 symmetry adapted basis functions of A   symmetry.
   210 basis functions,   324 primitive gaussians,   217 cartesian basis functions
    28 alpha electrons       28 beta electrons
       nuclear repulsion energy       323.1672073572 Hartrees.
 NAtoms=   15 NActive=   15 NUniq=   15 SFac= 1.00D+00 NAtFMM=   60 NAOKFM=F Big=F
 Integral buffers will be    131072 words long.
 Raffenetti 2 integral format.
 Two-electron integral symmetry is turned on.
 R6APFD:  NTU= -4 IXU= 1 FactS= 1.050
 Nuclear repulsion after empirical dispersion term =      323.1582715136 Hartrees.
 One-electron integrals computed using PRISM.
 NBasis=   210 RedAO= T EigKep=  1.57D-05  NBF=   210
 NBsUse=   210 1.00D-06 EigRej= -1.00D+00 NBFU=   210
 ExpMin= 3.60D-02 ExpMax= 8.59D+03 ExpMxC= 1.30D+03 IAcc=3 IRadAn=         5 AccDes= 0.00D+00
 Harris functional with IExCor= 1009 and IRadAn=       5 diagonalized for initial guess.
 HarFok:  IExCor= 1009 AccDes= 0.00D+00 IRadAn=         5 IDoV= 1 UseB2=F ITyADJ=14
 ICtDFT=  3500011 ScaDFX=  1.000000  1.000000  1.000000  1.000000
 FoFCou: FMM=F IPFlag=           0 FMFlag=      100000 FMFlg1=           0
         NFxFlg=           0 DoJE=T BraDBF=F KetDBF=T FulRan=T
         wScrn=  0.000000 ICntrl=       500 IOpCl=  0 I1Cent=   200000004 NGrid=           0
         NMat0=    1 NMatS0=      1 NMatT0=    0 NMatD0=    1 NMtDS0=    0 NMtDT0=    0
 Petite list used in FoFCou.
 Requested convergence on RMS density matrix=1.00D-08 within  32 cycles.
 Requested convergence on MAX density matrix=1.00D-06.
 Requested convergence on             energy=1.00D-06.
 No special actions if energy rises.
 SCF Done:  E(RM08HX) =  -382.899393921     A.U. after   13 cycles
            NFock= 13  Conv=0.74D-08     -V/T= 2.0043
 QCSCF skips out because SCF is already converged.

 **********************************************************************

            Population analysis using the SCF Density.

 **********************************************************************

 Orbital symmetries:
       Occupied  (A) (A) (A) (A) (A) (A) (A) (A) (A) (A) (A) (A)
                 (A) (A) (A) (A) (A) (A) (A) (A) (A) (A) (A) (A)
                 (A) (A) (A) (A)
       Virtual   (A) (A) (A) (A) (A) (A) (A) (A) (A) (A) (A) (A)
                 (A) (A) (A) (A) (A) (A) (A) (A) (A) (A) (A) (A)
                 (A) (A) (A) (A) (A) (A) (A) (A) (A) (A) (A) (A)
                 (A) (A) (A) (A) (A) (A) (A) (A) (A) (A) (A) (A)
                 (A) (A) (A) (A) (A) (A) (A) (A) (A) (A) (A) (A)
                 (A) (A) (A) (A) (A) (A) (A) (A) (A) (A) (A) (A)
                 (A) (A) (A) (A) (A) (A) (A) (A) (A) (A) (A) (A)
                 (A) (A) (A) (A) (A) (A) (A) (A) (A) (A) (A) (A)
                 (A) (A) (A) (A) (A) (A) (A) (A) (A) (A) (A) (A)
                 (A) (A) (A) (A) (A) (A) (A) (A) (A) (A) (A) (A)
                 (A) (A) (A) (A) (A) (A) (A) (A) (A) (A) (A) (A)
                 (A) (A) (A) (A) (A) (A) (A) (A) (A) (A) (A) (A)
                 (A) (A) (A) (A) (A) (A) (A) (A) (A) (A) (A) (A)
                 (A) (A) (A) (A) (A) (A) (A) (A) (A) (A) (A) (A)
                 (A) (A) (A) (A) (A) (A) (A) (A) (A) (A) (A) (A)
                 (A) (A)
 The electronic state is 1-A.
 Alpha  occ. eigenvalues --  -19.67160 -19.61655 -19.61343 -10.67702 -10.60645
 Alpha  occ. eigenvalues --  -10.59191 -10.53622  -1.23936  -1.15968  -1.13860
 Alpha  occ. eigenvalues --   -0.89413  -0.82936  -0.75253  -0.67018  -0.62612
 Alpha  occ. eigenvalues --   -0.58465  -0.57690  -0.54644  -0.54064  -0.51496
 Alpha  occ. eigenvalues --   -0.48706  -0.46523  -0.45314  -0.44380  -0.42054
 Alpha  occ. eigenvalues --   -0.38891  -0.37584  -0.35957
 Alpha virt. eigenvalues --   -0.03190  -0.01711  -0.01098  -0.00260   0.01004
 Alpha virt. eigenvalues --    0.01171   0.01834   0.02792   0.03593   0.04292
 Alpha virt. eigenvalues --    0.04940   0.06228   0.06567   0.07601   0.09182
 Alpha virt. eigenvalues --    0.09491   0.10647   0.11496   0.11859   0.12359
 Alpha virt. eigenvalues --    0.12853   0.13128   0.13378   0.14108   0.15221
 Alpha virt. eigenvalues --    0.18192   0.18729   0.19703   0.19825   0.20455
 Alpha virt. eigenvalues --    0.22130   0.22494   0.24243   0.25584   0.25758
 Alpha virt. eigenvalues --    0.27767   0.28762   0.29657   0.29805   0.30498
 Alpha virt. eigenvalues --    0.31181   0.31674   0.33234   0.33409   0.36349
 Alpha virt. eigenvalues --    0.36727   0.37252   0.38817   0.40103   0.41828
 Alpha virt. eigenvalues --    0.45924   0.46643   0.49068   0.51406   0.53415
 Alpha virt. eigenvalues --    0.56042   0.57109   0.60686   0.62663   0.64161
 Alpha virt. eigenvalues --    0.65252   0.65936   0.66367   0.67974   0.68899
 Alpha virt. eigenvalues --    0.70761   0.70799   0.71962   0.73361   0.76027
 Alpha virt. eigenvalues --    0.78764   0.88887   0.93909   0.96389   0.98939
 Alpha virt. eigenvalues --    1.03024   1.05709   1.09602   1.14365   1.17527
 Alpha virt. eigenvalues --    1.19065   1.20445   1.22220   1.24482   1.25703
 Alpha virt. eigenvalues --    1.27442   1.30180   1.34719   1.36353   1.38012
 Alpha virt. eigenvalues --    1.43556   1.46059   1.47922   1.50173   1.52262
 Alpha virt. eigenvalues --    1.54252   1.56568   1.56981   1.60404   1.61999
 Alpha virt. eigenvalues --    1.63380   1.64964   1.68002   1.70340   1.71871
 Alpha virt. eigenvalues --    1.72564   1.74479   1.77448   1.79723   1.83814
 Alpha virt. eigenvalues --    1.88252   1.89475   1.93225   2.01598   2.04927
 Alpha virt. eigenvalues --    2.07187   2.10289   2.13633   2.14122   2.17604
 Alpha virt. eigenvalues --    2.20819   2.22730   2.32122   2.39646   2.43676
 Alpha virt. eigenvalues --    2.46870   2.49024   2.53358   2.54707   2.54960
 Alpha virt. eigenvalues --    2.55574   2.58521   2.60780   2.61691   2.63203
 Alpha virt. eigenvalues --    2.68150   2.73121   2.81117   2.83396   2.83847
 Alpha virt. eigenvalues --    2.95829   2.96650   2.99191   3.04177   3.07167
 Alpha virt. eigenvalues --    3.09627   3.12745   3.19348   3.21435   3.25008
 Alpha virt. eigenvalues --    3.30732   3.36728   3.43970   3.50391   3.60754
 Alpha virt. eigenvalues --    3.68710   3.80762   3.80933   3.82811   3.84189
 Alpha virt. eigenvalues --    3.85148   4.04151   4.10359   4.17601   4.25080
 Alpha virt. eigenvalues --    4.32193   5.13073   5.15803   5.22602   5.34210
 Alpha virt. eigenvalues --    5.41887   5.53257   5.66685   5.80608   5.91901
 Alpha virt. eigenvalues --   23.84404  23.86049  23.96462  24.01113  49.89734
 Alpha virt. eigenvalues --   49.94998  49.99184
          Condensed to atoms (all electrons):
               1          2          3          4          5          6
     1  O    7.911939   0.018343   0.019703   0.318608  -0.075869  -0.140228
     2  O    0.018343   8.435584  -0.165294  -0.541920   0.015080   0.158403
     3  O    0.019703  -0.165294   7.921878   0.067796  -0.017677   0.461315
     4  C    0.318608  -0.541920   0.067796   9.829390  -0.953244  -2.589133
     5  C   -0.075869   0.015080  -0.017677  -0.953244   6.307200   0.328608
     6  C   -0.140228   0.158403   0.461315  -2.589133   0.328608   8.045086
     7  C    0.003132   0.200505  -0.014902  -0.151291   0.027775  -0.159123
     8  H   -0.092730   0.011602  -0.013676   0.523792  -0.157297  -0.102489
     9  H    0.024311   0.003899   0.000907  -0.139127   0.423882   0.076821
    10  H   -0.017613   0.003338   0.001699  -0.096475   0.458102  -0.003700
    11  H   -0.030047  -0.006462  -0.003377   0.259457   0.271471  -0.161508
    12  H    0.245685   0.003099  -0.001854   0.013030  -0.011639  -0.000063
    13  H    0.000026  -0.027630  -0.015371  -0.039237   0.004042   0.013186
    14  H    0.000044  -0.030969  -0.015772  -0.014751  -0.008520   0.001584
    15  H   -0.000183  -0.054086   0.003666   0.008748   0.002149   0.007133
               7          8          9         10         11         12
     1  O    0.003132  -0.092730   0.024311  -0.017613  -0.030047   0.245685
     2  O    0.200505   0.011602   0.003899   0.003338  -0.006462   0.003099
     3  O   -0.014902  -0.013676   0.000907   0.001699  -0.003377  -0.001854
     4  C   -0.151291   0.523792  -0.139127  -0.096475   0.259457   0.013030
     5  C    0.027775  -0.157297   0.423882   0.458102   0.271471  -0.011639
     6  C   -0.159123  -0.102489   0.076821  -0.003700  -0.161508  -0.000063
     7  C    5.360029   0.002763  -0.007429   0.002626  -0.000305   0.004199
     8  H    0.002763   0.503129  -0.009451  -0.010871   0.009744   0.016652
     9  H   -0.007429  -0.009451   0.516375  -0.030918  -0.056701  -0.001431
    10  H    0.002626  -0.010871  -0.030918   0.477676  -0.030919   0.003590
    11  H   -0.000305   0.009744  -0.056701  -0.030919   0.537001  -0.011493
    12  H    0.004199   0.016652  -0.001431   0.003590  -0.011493   0.456126
    13  H    0.404450  -0.002221   0.001597  -0.000440  -0.000383   0.000284
    14  H    0.395783   0.003559   0.000278  -0.000396  -0.000186  -0.000604
    15  H    0.389847   0.000220  -0.002653   0.000612   0.000053   0.000235
              13         14         15
     1  O    0.000026   0.000044  -0.000183
     2  O   -0.027630  -0.030969  -0.054086
     3  O   -0.015371  -0.015772   0.003666
     4  C   -0.039237  -0.014751   0.008748
     5  C    0.004042  -0.008520   0.002149
     6  C    0.013186   0.001584   0.007133
     7  C    0.404450   0.395783   0.389847
     8  H   -0.002221   0.003559   0.000220
     9  H    0.001597   0.000278  -0.002653
    10  H   -0.000440  -0.000396   0.000612
    11  H   -0.000383  -0.000186   0.000053
    12  H    0.000284  -0.000604   0.000235
    13  H    0.514384  -0.047905  -0.034624
    14  H   -0.047905   0.521468  -0.034504
    15  H   -0.034624  -0.034504   0.501245
 Mulliken charges:
               1
     1  O   -0.185122
     2  O   -0.023491
     3  O   -0.229040
     4  C   -0.495642
     5  C   -0.614063
     6  C    0.064107
     7  C   -0.458060
     8  H    0.317274
     9  H    0.199639
    10  H    0.243688
    11  H    0.223652
    12  H    0.284183
    13  H    0.229841
    14  H    0.230893
    15  H    0.212142
 Sum of Mulliken charges =   0.00000
 Mulliken charges with hydrogens summed into heavy atoms:
               1
     1  O    0.099061
     2  O   -0.023491
     3  O   -0.229040
     4  C   -0.178368
     5  C    0.052916
     6  C    0.064107
     7  C    0.214815
 Electronic spatial extent (au):  <R**2>=            844.3679
 Charge=              0.0000 electrons
 Dipole moment (field-independent basis, Debye):
    X=              1.3340    Y=              2.7627    Z=              0.7256  Tot=              3.1525
 Quadrupole moment (field-independent basis, Debye-Ang):
   XX=            -38.5246   YY=            -47.9074   ZZ=            -40.7015
   XY=             -1.1833   XZ=             -3.3091   YZ=             -0.2516
 Traceless Quadrupole moment (field-independent basis, Debye-Ang):
   XX=              3.8533   YY=             -5.5296   ZZ=              1.6763
   XY=             -1.1833   XZ=             -3.3091   YZ=             -0.2516
 Octapole moment (field-independent basis, Debye-Ang**2):
  XXX=             27.4033  YYY=              3.8968  ZZZ=             -0.5513  XYY=             -1.9835
  XXY=              5.3529  XXZ=              7.8341  XZZ=             -2.6242  YZZ=             -2.2452
  YYZ=             -0.1739  XYZ=              6.4616
 Hexadecapole moment (field-independent basis, Debye-Ang**3):
 XXXX=           -686.3855 YYYY=           -280.1447 ZZZZ=            -86.0952 XXXY=              5.7342
 XXXZ=            -20.6098 YYYX=             11.3436 YYYZ=             -2.7453 ZZZX=              1.5241
 ZZZY=             -3.3143 XXYY=           -161.8595 XXZZ=           -130.3446 YYZZ=            -61.8271
 XXYZ=            -10.6278 YYXZ=             -7.7229 ZZXY=              2.8684
 N-N= 3.231582715136D+02 E-N=-1.543494251852D+03  KE= 3.812498476435D+02
 R6APFD:  NTU= -4 IXU= 1 FactS= 1.050
 Calling FoFJK, ICntrl=      2127 FMM=F ISym2X=0 I1Cent= 0 IOpClX= 0 NMat=1 NMatS=1 NMatT=0.
 ***** Axes restored to original set *****
 -------------------------------------------------------------------
 Center     Atomic                   Forces (Hartrees/Bohr)
 Number     Number              X              Y              Z
 -------------------------------------------------------------------
      1        8           0.000467686   -0.000903723   -0.001117343
      2        8          -0.007811717    0.016802798   -0.006194687
      3        8          -0.000449899   -0.045844609    0.012218381
      4        6          -0.018574812    0.014254017   -0.015746774
      5        6           0.004135805   -0.013815188    0.000222650
      6        6           0.021687104    0.023568043   -0.003728594
      7        6           0.000365989   -0.001086685    0.000137637
      8        1          -0.000287791    0.000541320    0.001459522
      9        1           0.001032422   -0.000918422   -0.000775215
     10        1           0.000502642    0.001693432    0.002717437
     11        1           0.001992805    0.002195962   -0.001356830
     12        1           0.003065659   -0.000426363    0.012988936
     13        1          -0.000908954    0.002609950   -0.002027979
     14        1          -0.000535678    0.003351367    0.000013197
     15        1          -0.004681260   -0.002021899    0.001189664
 -------------------------------------------------------------------
 Cartesian Forces:  Max     0.045844609 RMS     0.010472784

 GradGradGradGradGradGradGradGradGradGradGradGradGradGradGradGradGradGrad
 Berny optimization.
 FormGI is forming the generalized inverse of G from B-inverse, IUseBI=4.
 Internal  Forces:  Max     0.046533348 RMS     0.008049666
 Search for a local minimum.
 Step number   1 out of a maximum of   70
 All quantities printed in internal units (Hartrees-Bohrs-Radians)
 Mixed Optimization -- RFO/linear search
 Second derivative matrix not updated -- first step.
 ITU=  0
     Eigenvalues ---    0.00519   0.00563   0.00970   0.01279   0.01438
     Eigenvalues ---    0.02147   0.04918   0.05536   0.05662   0.05682
     Eigenvalues ---    0.08123   0.10154   0.10484   0.16000   0.16000
     Eigenvalues ---    0.16000   0.16000   0.16000   0.16000   0.16000
     Eigenvalues ---    0.17398   0.19631   0.24996   0.25000   0.25000
     Eigenvalues ---    0.30498   0.30819   0.34123   0.34212   0.34307
     Eigenvalues ---    0.34329   0.34340   0.34340   0.34441   0.40820
     Eigenvalues ---    0.42583   0.51840   0.52850   0.93544
 RFO step:  Lambda=-1.07659050D-02 EMin= 5.19430718D-03
 Linear search not attempted -- first point.
 Iteration  1 RMS(Cart)=  0.06650923 RMS(Int)=  0.00278662
 Iteration  2 RMS(Cart)=  0.00387194 RMS(Int)=  0.00096447
 Iteration  3 RMS(Cart)=  0.00000698 RMS(Int)=  0.00096445
 Iteration  4 RMS(Cart)=  0.00000001 RMS(Int)=  0.00096445
 Variable       Old X    -DE/DX   Delta X   Delta X   Delta X     New X
                                 (Linear)    (Quad)   (Total)
    R1        2.68187  -0.00495   0.00000  -0.01133  -0.01133   2.67054
    R2        1.83794  -0.01292   0.00000  -0.02395  -0.02395   1.81398
    R3        2.58053  -0.02437   0.00000  -0.04605  -0.04605   2.53448
    R4        2.70455  -0.00454   0.00000  -0.01083  -0.01083   2.69372
    R5        2.31341  -0.04653   0.00000  -0.04918  -0.04918   2.26424
    R6        2.86981   0.00595   0.00000   0.01883   0.01883   2.88864
    R7        2.86359   0.00561   0.00000   0.01760   0.01760   2.88119
    R8        2.06778   0.00128   0.00000   0.00362   0.00362   2.07140
    R9        2.06816   0.00124   0.00000   0.00349   0.00349   2.07165
   R10        2.06974  -0.00043   0.00000  -0.00121  -0.00121   2.06853
   R11        2.07122   0.00192   0.00000   0.00547   0.00547   2.07669
   R12        2.06761   0.00064   0.00000   0.00182   0.00182   2.06942
   R13        2.06760   0.00066   0.00000   0.00187   0.00187   2.06947
   R14        2.06592  -0.00096   0.00000  -0.00270  -0.00270   2.06322
    A1        1.88844  -0.00018   0.00000  -0.00104  -0.00104   1.88740
    A2        2.01652  -0.00581   0.00000  -0.02228  -0.02228   1.99424
    A3        1.88686   0.01171   0.00000   0.08562   0.08542   1.97229
    A4        1.89650   0.00212   0.00000   0.03712   0.03634   1.93284
    A5        1.88110  -0.00617   0.00000  -0.04636  -0.04526   1.83584
    A6        1.94434  -0.00858   0.00000  -0.02610  -0.02871   1.91563
    A7        1.94864  -0.00084   0.00000  -0.02608  -0.02638   1.92227
    A8        1.90457   0.00197   0.00000  -0.02215  -0.02298   1.88159
    A9        1.94699   0.00182   0.00000   0.01046   0.01051   1.95750
   A10        1.93026  -0.00384   0.00000  -0.02157  -0.02163   1.90863
   A11        1.93930  -0.00279   0.00000  -0.01705  -0.01712   1.92218
   A12        1.89463   0.00130   0.00000   0.00894   0.00900   1.90363
   A13        1.88352   0.00029   0.00000   0.00004   0.00008   1.88360
   A14        1.86641   0.00346   0.00000   0.02060   0.02041   1.88682
   A15        2.19559  -0.01246   0.00000  -0.04691  -0.04936   2.14623
   A16        1.91412   0.00572   0.00000   0.02277   0.02016   1.93428
   A17        2.17326   0.00680   0.00000   0.02685   0.02404   2.19730
   A18        1.92418   0.00055   0.00000   0.00202   0.00203   1.92621
   A19        1.92402   0.00083   0.00000   0.00367   0.00368   1.92770
   A20        1.88701  -0.00671   0.00000  -0.03699  -0.03697   1.85004
   A21        1.93255  -0.00259   0.00000  -0.01951  -0.01951   1.91303
   A22        1.89759   0.00401   0.00000   0.02578   0.02579   1.92338
   A23        1.89750   0.00391   0.00000   0.02530   0.02532   1.92282
    D1       -0.96593  -0.00052   0.00000  -0.09454  -0.09659  -1.06252
    D2        1.14668  -0.00271   0.00000  -0.05372  -0.05185   1.09483
    D3       -3.07480  -0.00265   0.00000  -0.08552  -0.08534   3.12305
    D4       -0.00012   0.00130   0.00000   0.06113   0.05855   0.05843
    D5       -3.11963  -0.00163   0.00000  -0.07148  -0.06890   3.09465
    D6        1.06923  -0.00117   0.00000  -0.01077  -0.01077   1.05846
    D7       -1.06968   0.00116   0.00000   0.00999   0.00997  -1.05970
    D8        3.14147  -0.00002   0.00000  -0.00058  -0.00056   3.14090
    D9       -3.07448   0.00157   0.00000   0.02419   0.02434  -3.05014
   D10       -0.96393   0.00181   0.00000   0.02780   0.02788  -0.93605
   D11        1.10607   0.00187   0.00000   0.02871   0.02892   1.13499
   D12        1.12609  -0.00334   0.00000  -0.06008  -0.05985   1.06624
   D13       -3.04655  -0.00310   0.00000  -0.05647  -0.05631  -3.10285
   D14       -0.97655  -0.00304   0.00000  -0.05556  -0.05527  -1.03182
   D15       -1.00821   0.00088   0.00000   0.00586   0.00550  -1.00272
   D16        1.10234   0.00111   0.00000   0.00948   0.00904   1.11138
   D17       -3.11085   0.00118   0.00000   0.01039   0.01007  -3.10077
   D18        3.08140  -0.00486   0.00000  -0.04504  -0.04417   3.03723
   D19       -0.03845  -0.00744   0.00000  -0.17444  -0.17505  -0.21351
   D20       -1.12491   0.00573   0.00000   0.06828   0.06854  -1.05636
   D21        2.03842   0.00315   0.00000  -0.06112  -0.06234   1.97608
   D22        1.03461   0.00023   0.00000   0.00187   0.00295   1.03756
   D23       -2.08525  -0.00235   0.00000  -0.12753  -0.12793  -2.21318
         Item               Value     Threshold  Converged?
 Maximum Force            0.046533     0.000450     NO 
 RMS     Force            0.008050     0.000300     NO 
 Maximum Displacement     0.213677     0.001800     NO 
 RMS     Displacement     0.067384     0.001200     NO 
 Predicted change in Energy=-6.050834D-03
 GradGradGradGradGradGradGradGradGradGradGradGradGradGradGradGradGradGrad

                          Input orientation:                          
 ---------------------------------------------------------------------
 Center     Atomic      Atomic             Coordinates (Angstroms)
 Number     Number       Type             X           Y           Z
 ---------------------------------------------------------------------
      1          8           0       -2.063977    0.829598    0.242062
      2          8           0        1.206836   -0.643635    0.311423
      3          8           0        0.556832    1.351026   -0.451654
      4          6           0       -1.113308   -0.207487    0.375438
      5          6           0       -1.429173   -1.423085   -0.495867
      6          6           0        0.288989    0.301671    0.060940
      7          6           0        2.541739   -0.265036   -0.015101
      8          1           0       -1.138960   -0.485957    1.435303
      9          1           0       -0.736684   -2.253263   -0.314026
     10          1           0       -2.451127   -1.758917   -0.293349
     11          1           0       -1.362543   -1.153857   -1.559229
     12          1           0       -2.064357    1.118773   -0.673264
     13          1           0        2.843017    0.611038    0.568810
     14          1           0        2.625328   -0.040900   -1.083771
     15          1           0        3.168489   -1.121867    0.239984
 ---------------------------------------------------------------------
                    Distance matrix (angstroms):
                    1          2          3          4          5
     1  O    0.000000
     2  O    3.587958   0.000000
     3  O    2.760756   2.232367   0.000000
     4  C    1.413190   2.361650   2.429489   0.000000
     5  C    2.453995   2.864926   3.412018   1.528600   0.000000
     6  C    2.418256   1.341189   1.198182   1.524660   2.497378
     7  C    4.740989   1.425454   2.596554   3.676302   4.164175
     8  H    2.002540   2.605902   3.132224   1.096138   2.166068
     9  H    3.402201   2.599877   3.831844   2.191439   1.096268
    10  H    2.671508   3.871731   4.329507   2.154987   1.094617
    11  H    2.769612   3.218909   3.344423   2.168103   1.098937
    12  H    0.959919   3.844007   2.640774   1.939906   2.626017
    13  H    4.922715   2.077869   2.610665   4.044736   4.850031
    14  H    4.950271   2.078936   2.572101   4.016770   4.323777
    15  H    5.584525   2.020369   3.662556   4.380437   4.665909
                    6          7          8          9         10
     6  C    0.000000
     7  C    2.324182   0.000000
     8  H    2.132667   3.962325   0.000000
     9  H    2.778541   3.845836   2.518997   0.000000
    10  H    3.446705   5.218985   2.516038   1.784411   0.000000
    11  H    2.733325   4.291590   3.076248   1.775084   1.775828
    12  H    2.597104   4.854299   2.806702   3.641757   2.928314
    13  H    2.622346   1.095092   4.220231   4.668819   5.864125
    14  H    2.624156   1.095116   4.551227   4.097582   5.417264
    15  H    3.217147   1.091807   4.515228   4.103335   5.680701
                   11         12         13         14         15
    11  H    0.000000
    12  H    2.538173   0.000000
    13  H    5.032906   5.087520   0.000000
    14  H    4.167475   4.848350   1.789814   0.000000
    15  H    4.875289   5.765168   1.793605   1.793276   0.000000
 Stoichiometry    C4H8O3
 Framework group  C1[X(C4H8O3)]
 Deg. of freedom    39
 Full point group                 C1      NOp   1
 Largest Abelian subgroup         C1      NOp   1
 Largest concise Abelian subgroup C1      NOp   1
                         Standard orientation:                         
 ---------------------------------------------------------------------
 Center     Atomic      Atomic             Coordinates (Angstroms)
 Number     Number       Type             X           Y           Z
 ---------------------------------------------------------------------
      1          8           0       -2.065254   -0.877547   -0.265211
      2          8           0        1.205180    0.596428   -0.336605
      3          8           0        0.550679   -1.384893    0.456777
      4          6           0       -1.114195    0.157661   -0.409903
      5          6           0       -1.437102    1.388231    0.437473
      6          6           0        0.286033   -0.344926   -0.076205
      7          6           0        2.537857    0.224548    0.006319
      8          1           0       -1.132223    0.417368   -1.474678
      9          1           0       -0.743747    2.215537    0.246085
     10          1           0       -2.457725    1.719751    0.221579
     11          1           0       -1.378127    1.137854    1.505881
     12          1           0       -2.072191   -1.150526    0.655050
     13          1           0        2.843886   -0.661491   -0.559816
     14          1           0        2.613727    0.019360    1.079362
     15          1           0        3.165997    1.077165   -0.259252
 ---------------------------------------------------------------------
 Rotational constants (GHZ):           4.8881193           1.8659667           1.4868701
 Standard basis: 6-311++G(d,p) (5D, 7F)
 There are   217 symmetry adapted cartesian basis functions of A   symmetry.
 There are   210 symmetry adapted basis functions of A   symmetry.
   210 basis functions,   324 primitive gaussians,   217 cartesian basis functions
    28 alpha electrons       28 beta electrons
       nuclear repulsion energy       324.9581560848 Hartrees.
 NAtoms=   15 NActive=   15 NUniq=   15 SFac= 1.00D+00 NAtFMM=   60 NAOKFM=F Big=F
 Integral buffers will be    131072 words long.
 Raffenetti 2 integral format.
 Two-electron integral symmetry is turned on.
 R6APFD:  NTU= -4 IXU= 1 FactS= 1.050
 Nuclear repulsion after empirical dispersion term =      324.9492144902 Hartrees.
 One-electron integrals computed using PRISM.
 NBasis=   210 RedAO= T EigKep=  1.75D-05  NBF=   210
 NBsUse=   210 1.00D-06 EigRej= -1.00D+00 NBFU=   210
 Initial guess from the checkpoint file:  "MELA0066.chk"
 B after Tr=    -0.000000   -0.000000   -0.000000
         Rot=    0.999947    0.008882   -0.004952    0.001690 Ang=   1.18 deg.
 ExpMin= 3.60D-02 ExpMax= 8.59D+03 ExpMxC= 1.30D+03 IAcc=3 IRadAn=         5 AccDes= 0.00D+00
 Harris functional with IExCor= 1009 and IRadAn=       5 diagonalized for initial guess.
 HarFok:  IExCor= 1009 AccDes= 0.00D+00 IRadAn=         5 IDoV= 1 UseB2=F ITyADJ=14
 ICtDFT=  3500011 ScaDFX=  1.000000  1.000000  1.000000  1.000000
 FoFCou: FMM=F IPFlag=           0 FMFlag=      100000 FMFlg1=           0
         NFxFlg=           0 DoJE=T BraDBF=F KetDBF=T FulRan=T
         wScrn=  0.000000 ICntrl=       500 IOpCl=  0 I1Cent=   200000004 NGrid=           0
         NMat0=    1 NMatS0=      1 NMatT0=    0 NMatD0=    1 NMtDS0=    0 NMtDT0=    0
 Petite list used in FoFCou.
 Requested convergence on RMS density matrix=1.00D-08 within  32 cycles.
 Requested convergence on MAX density matrix=1.00D-06.
 Requested convergence on             energy=1.00D-06.
 No special actions if energy rises.
 SCF Done:  E(RM08HX) =  -382.904303624     A.U. after   12 cycles
            NFock= 12  Conv=0.78D-08     -V/T= 2.0039
 QCSCF skips out because SCF is already converged.
 R6APFD:  NTU= -4 IXU= 1 FactS= 1.050
 Calling FoFJK, ICntrl=      2127 FMM=F ISym2X=0 I1Cent= 0 IOpClX= 0 NMat=1 NMatS=1 NMatT=0.
 ***** Axes restored to original set *****
 -------------------------------------------------------------------
 Center     Atomic                   Forces (Hartrees/Bohr)
 Number     Number              X              Y              Z
 -------------------------------------------------------------------
      1        8           0.002665085   -0.006787520   -0.000966700
      2        8          -0.001511465    0.001584397    0.004371286
      3        8          -0.004085097    0.005288136    0.001295903
      4        6          -0.004613079    0.006886033    0.005398606
      5        6          -0.000855204   -0.001745679   -0.002591033
      6        6           0.003387514   -0.007127805   -0.009878711
      7        6           0.003300317   -0.003605291    0.000955505
      8        1           0.000739157   -0.001670047    0.001039095
      9        1           0.000143233    0.002072623    0.001008869
     10        1          -0.000119578    0.000171763    0.000273913
     11        1          -0.000011630    0.000078931   -0.000142329
     12        1           0.001500276    0.002943496   -0.000073293
     13        1          -0.000082198    0.000591288   -0.001058662
     14        1          -0.000170683    0.001124187    0.000280817
     15        1          -0.000286647    0.000195488    0.000086732
 -------------------------------------------------------------------
 Cartesian Forces:  Max     0.009878711 RMS     0.003131000

 GradGradGradGradGradGradGradGradGradGradGradGradGradGradGradGradGradGrad
 Berny optimization.
 Using GEDIIS/GDIIS optimizer.
 FormGI is forming the generalized inverse of G from B-inverse, IUseBI=4.
 Internal  Forces:  Max     0.006579374 RMS     0.001958956
 Search for a local minimum.
 Step number   2 out of a maximum of   70
 All quantities printed in internal units (Hartrees-Bohrs-Radians)
 Mixed Optimization -- RFO/linear search
 Update second derivatives using D2CorX and points    1    2
 DE= -4.91D-03 DEPred=-6.05D-03 R= 8.11D-01
 TightC=F SS=  1.41D+00  RLast= 3.53D-01 DXNew= 5.0454D-01 1.0591D+00
 Trust test= 8.11D-01 RLast= 3.53D-01 DXMaxT set to 5.05D-01
 ITU=  1  0
 Use linear search instead of GDIIS.
     Eigenvalues ---    0.00520   0.00551   0.01164   0.01279   0.01412
     Eigenvalues ---    0.02146   0.05280   0.05473   0.05564   0.05856
     Eigenvalues ---    0.08051   0.10109   0.10642   0.15444   0.16000
     Eigenvalues ---    0.16000   0.16000   0.16000   0.16000   0.16264
     Eigenvalues ---    0.17512   0.19597   0.24908   0.24970   0.28026
     Eigenvalues ---    0.30404   0.30750   0.34108   0.34212   0.34302
     Eigenvalues ---    0.34333   0.34340   0.34378   0.34438   0.40959
     Eigenvalues ---    0.42109   0.51973   0.52884   0.92133
 RFO step:  Lambda=-3.07531686D-03 EMin= 5.19508720D-03
 Quartic linear search produced a step of -0.09971.
 Iteration  1 RMS(Cart)=  0.10374055 RMS(Int)=  0.00630225
 Iteration  2 RMS(Cart)=  0.01133371 RMS(Int)=  0.00158988
 Iteration  3 RMS(Cart)=  0.00009889 RMS(Int)=  0.00158924
 Iteration  4 RMS(Cart)=  0.00000013 RMS(Int)=  0.00158924
 Variable       Old X    -DE/DX   Delta X   Delta X   Delta X     New X
                                 (Linear)    (Quad)   (Total)
    R1        2.67054  -0.00552   0.00113  -0.01599  -0.01486   2.65568
    R2        1.81398   0.00096   0.00239  -0.00789  -0.00550   1.80849
    R3        2.53448   0.00180   0.00459  -0.01518  -0.01059   2.52389
    R4        2.69372   0.00207   0.00108   0.00021   0.00129   2.69500
    R5        2.26424   0.00316   0.00490  -0.01646  -0.01155   2.25268
    R6        2.88864   0.00054  -0.00188   0.00904   0.00717   2.89580
    R7        2.88119   0.00067  -0.00176   0.00892   0.00717   2.88836
    R8        2.07140   0.00141  -0.00036   0.00508   0.00471   2.07612
    R9        2.07165  -0.00131  -0.00035  -0.00199  -0.00234   2.06930
   R10        2.06853   0.00011   0.00012  -0.00020  -0.00008   2.06845
   R11        2.07669   0.00015  -0.00055   0.00257   0.00203   2.07872
   R12        2.06942  -0.00011  -0.00018   0.00043   0.00025   2.06967
   R13        2.06947  -0.00006  -0.00019   0.00060   0.00041   2.06988
   R14        2.06322  -0.00030   0.00027  -0.00184  -0.00157   2.06165
    A1        1.88740   0.00164   0.00010   0.00856   0.00866   1.89606
    A2        1.99424   0.00611   0.00222   0.01269   0.01491   2.00915
    A3        1.97229   0.00045  -0.00852   0.03168   0.02324   1.99552
    A4        1.93284  -0.00060  -0.00362   0.00684   0.00339   1.93623
    A5        1.83584   0.00065   0.00451  -0.00639  -0.00195   1.83388
    A6        1.91563  -0.00105   0.00286  -0.02048  -0.01743   1.89820
    A7        1.92227  -0.00035   0.00263  -0.01200  -0.00942   1.91285
    A8        1.88159   0.00101   0.00229  -0.00036   0.00186   1.88345
    A9        1.95750  -0.00280  -0.00105  -0.01264  -0.01374   1.94376
   A10        1.90863   0.00004   0.00216  -0.00778  -0.00565   1.90298
   A11        1.92218   0.00054   0.00171  -0.00305  -0.00135   1.92083
   A12        1.90363   0.00119  -0.00090   0.00840   0.00744   1.91107
   A13        1.88360   0.00100  -0.00001   0.00426   0.00421   1.88781
   A14        1.88682   0.00014  -0.00204   0.01200   0.00999   1.89681
   A15        2.14623   0.00658   0.00492   0.01113   0.00892   2.15514
   A16        1.93428  -0.00100  -0.00201   0.01159   0.00254   1.93682
   A17        2.19730  -0.00523  -0.00240  -0.00228  -0.01164   2.18566
   A18        1.92621   0.00031  -0.00020   0.00170   0.00149   1.92770
   A19        1.92770  -0.00019  -0.00037  -0.00039  -0.00077   1.92693
   A20        1.85004   0.00019   0.00369  -0.01220  -0.00851   1.84153
   A21        1.91303  -0.00129   0.00195  -0.01776  -0.01582   1.89721
   A22        1.92338   0.00042  -0.00257   0.01423   0.01166   1.93503
   A23        1.92282   0.00063  -0.00252   0.01512   0.01260   1.93542
    D1       -1.06252  -0.00116   0.00963  -0.12402  -0.11422  -1.17674
    D2        1.09483  -0.00266   0.00517  -0.12234  -0.11728   0.97755
    D3        3.12305  -0.00140   0.00851  -0.12297  -0.11452   3.00853
    D4        0.05843  -0.00181  -0.00584  -0.11230  -0.11888  -0.06045
    D5        3.09465   0.00123   0.00687   0.08690   0.09451  -3.09402
    D6        1.05846  -0.00084   0.00107  -0.01477  -0.01368   1.04479
    D7       -1.05970   0.00070  -0.00099   0.00667   0.00566  -1.05404
    D8        3.14090  -0.00006   0.00006  -0.00402  -0.00397   3.13694
    D9       -3.05014  -0.00071  -0.00243  -0.00428  -0.00675  -3.05689
   D10       -0.93605  -0.00101  -0.00278  -0.00732  -0.01011  -0.94616
   D11        1.13499  -0.00050  -0.00288   0.00077  -0.00216   1.13283
   D12        1.06624   0.00053   0.00597  -0.02059  -0.01457   1.05167
   D13       -3.10285   0.00023   0.00561  -0.02362  -0.01793  -3.12078
   D14       -1.03182   0.00075   0.00551  -0.01553  -0.00998  -1.04180
   D15       -1.00272   0.00015  -0.00055  -0.00030  -0.00088  -1.00359
   D16        1.11138  -0.00015  -0.00090  -0.00333  -0.00423   1.10714
   D17       -3.10077   0.00037  -0.00100   0.00476   0.00371  -3.09706
   D18        3.03723  -0.00230   0.00440  -0.22722  -0.22234   2.81489
   D19       -0.21351   0.00173   0.01745  -0.01986  -0.00289  -0.21640
   D20       -1.05636  -0.00290  -0.00683  -0.19644  -0.20275  -1.25911
   D21        1.97608   0.00113   0.00622   0.01092   0.01670   1.99279
   D22        1.03756  -0.00333  -0.00029  -0.22300  -0.22286   0.81470
   D23       -2.21318   0.00071   0.01276  -0.01564  -0.00341  -2.21659
         Item               Value     Threshold  Converged?
 Maximum Force            0.006579     0.000450     NO 
 RMS     Force            0.001959     0.000300     NO 
 Maximum Displacement     0.343728     0.001800     NO 
 RMS     Displacement     0.111025     0.001200     NO 
 Predicted change in Energy=-1.925443D-03
 GradGradGradGradGradGradGradGradGradGradGradGradGradGradGradGradGradGrad

                          Input orientation:                          
 ---------------------------------------------------------------------
 Center     Atomic      Atomic             Coordinates (Angstroms)
 Number     Number       Type             X           Y           Z
 ---------------------------------------------------------------------
      1          8           0       -2.022914    0.820143    0.323670
      2          8           0        1.229973   -0.625794    0.323539
      3          8           0        0.534564    1.291994   -0.570836
      4          6           0       -1.100678   -0.240037    0.344640
      5          6           0       -1.492584   -1.435287   -0.530582
      6          6           0        0.290521    0.237922   -0.070434
      7          6           0        2.570784   -0.235363    0.034312
      8          1           0       -1.050282   -0.554127    1.396211
      9          1           0       -0.787176   -2.264489   -0.412637
     10          1           0       -2.497335   -1.767904   -0.251406
     11          1           0       -1.500897   -1.140247   -1.590253
     12          1           0       -2.018002    1.212530   -0.549185
     13          1           0        2.806746    0.715165    0.524549
     14          1           0        2.709668   -0.117468   -1.045765
     15          1           0        3.198712   -1.038937    0.421877
 ---------------------------------------------------------------------
                    Distance matrix (angstroms):
                    1          2          3          4          5
     1  O    0.000000
     2  O    3.559776   0.000000
     3  O    2.750177   2.227423   0.000000
     4  C    1.405325   2.362455   2.420585   0.000000
     5  C    2.469405   2.965994   3.398383   1.532393   0.000000
     6  C    2.417907   1.335587   1.192068   1.528452   2.488137
     7  C    4.722274   1.426135   2.616336   3.684557   4.274328
     8  H    1.996240   2.520978   3.128766   1.098633   2.164395
     9  H    3.403549   2.701142   3.797446   2.184070   1.095029
    10  H    2.693284   3.940534   4.319424   2.154136   1.094577
    11  H    2.789038   3.374154   3.331382   2.171259   1.100009
    12  H    0.957010   3.832809   2.553894   1.936584   2.699508
    13  H    4.834975   2.079612   2.587549   4.026505   4.921583
    14  H    5.015157   2.079154   2.634999   4.057954   4.434070
    15  H    5.543573   2.014024   3.676467   4.373668   4.803387
                    6          7          8          9         10
     6  C    0.000000
     7  C    2.331216   0.000000
     8  H    2.139192   3.881816   0.000000
     9  H    2.746015   3.948799   2.503296   0.000000
    10  H    3.439219   5.302466   2.506364   1.788081   0.000000
    11  H    2.723670   4.476227   3.076615   1.777667   1.783075
    12  H    2.551145   4.847042   2.800380   3.690967   3.033384
    13  H    2.629288   1.095222   4.153019   4.761610   5.907708
    14  H    2.632460   1.095333   4.504569   4.151923   5.519767
    15  H    3.214081   1.090978   4.386151   4.252728   5.781839
                   11         12         13         14         15
    11  H    0.000000
    12  H    2.624268   0.000000
    13  H    5.144971   4.967743   0.000000
    14  H    4.367081   4.936229   1.780052   0.000000
    15  H    5.113243   5.764215   1.800292   1.800622   0.000000
 Stoichiometry    C4H8O3
 Framework group  C1[X(C4H8O3)]
 Deg. of freedom    39
 Full point group                 C1      NOp   1
 Largest Abelian subgroup         C1      NOp   1
 Largest concise Abelian subgroup C1      NOp   1
                         Standard orientation:                         
 ---------------------------------------------------------------------
 Center     Atomic      Atomic             Coordinates (Angstroms)
 Number     Number       Type             X           Y           Z
 ---------------------------------------------------------------------
      1          8           0       -2.010580   -0.913180   -0.378992
      2          8           0        1.216219    0.589869   -0.354173
      3          8           0        0.545516   -1.334910    0.544043
      4          6           0       -1.106955    0.162964   -0.396672
      5          6           0       -1.528736    1.355937    0.467703
      6          6           0        0.288113   -0.288088    0.035188
      7          6           0        2.560657    0.224746   -0.049162
      8          1           0       -1.051337    0.472078   -1.449454
      9          1           0       -0.836842    2.196785    0.352177
     10          1           0       -2.536271    1.669238    0.176474
     11          1           0       -1.542696    1.066658    1.528902
     12          1           0       -2.007698   -1.300589    0.496092
     13          1           0        2.818290   -0.724168   -0.531551
     14          1           0        2.690542    0.115290    1.032922
     15          1           0        3.178295    1.037113   -0.434926
 ---------------------------------------------------------------------
 Rotational constants (GHZ):           4.8847732           1.8323351           1.4891194
 Standard basis: 6-311++G(d,p) (5D, 7F)
 There are   217 symmetry adapted cartesian basis functions of A   symmetry.
 There are   210 symmetry adapted basis functions of A   symmetry.
   210 basis functions,   324 primitive gaussians,   217 cartesian basis functions
    28 alpha electrons       28 beta electrons
       nuclear repulsion energy       324.6975591197 Hartrees.
 NAtoms=   15 NActive=   15 NUniq=   15 SFac= 1.00D+00 NAtFMM=   60 NAOKFM=F Big=F
 Integral buffers will be    131072 words long.
 Raffenetti 2 integral format.
 Two-electron integral symmetry is turned on.
 R6APFD:  NTU= -4 IXU= 1 FactS= 1.050
 Nuclear repulsion after empirical dispersion term =      324.6886971747 Hartrees.
 One-electron integrals computed using PRISM.
 NBasis=   210 RedAO= T EigKep=  1.72D-05  NBF=   210
 NBsUse=   210 1.00D-06 EigRej= -1.00D+00 NBFU=   210
 Initial guess from the checkpoint file:  "MELA0066.chk"
 B after Tr=     0.000000    0.000000    0.000000
         Rot=    0.999958    0.001007    0.004683   -0.007832 Ang=   1.05 deg.
 ExpMin= 3.60D-02 ExpMax= 8.59D+03 ExpMxC= 1.30D+03 IAcc=3 IRadAn=         5 AccDes= 0.00D+00
 Harris functional with IExCor= 1009 and IRadAn=       5 diagonalized for initial guess.
 HarFok:  IExCor= 1009 AccDes= 0.00D+00 IRadAn=         5 IDoV= 1 UseB2=F ITyADJ=14
 ICtDFT=  3500011 ScaDFX=  1.000000  1.000000  1.000000  1.000000
 FoFCou: FMM=F IPFlag=           0 FMFlag=      100000 FMFlg1=           0
         NFxFlg=           0 DoJE=T BraDBF=F KetDBF=T FulRan=T
         wScrn=  0.000000 ICntrl=       500 IOpCl=  0 I1Cent=   200000004 NGrid=           0
         NMat0=    1 NMatS0=      1 NMatT0=    0 NMatD0=    1 NMtDS0=    0 NMtDT0=    0
 Petite list used in FoFCou.
 Requested convergence on RMS density matrix=1.00D-08 within  32 cycles.
 Requested convergence on MAX density matrix=1.00D-06.
 Requested convergence on             energy=1.00D-06.
 No special actions if energy rises.
 SCF Done:  E(RM08HX) =  -382.904334116     A.U. after   13 cycles
            NFock= 13  Conv=0.32D-08     -V/T= 2.0038
 QCSCF skips out because SCF is already converged.
 R6APFD:  NTU= -4 IXU= 1 FactS= 1.050
 Calling FoFJK, ICntrl=      2127 FMM=F ISym2X=0 I1Cent= 0 IOpClX= 0 NMat=1 NMatS=1 NMatT=0.
 ***** Axes restored to original set *****
 -------------------------------------------------------------------
 Center     Atomic                   Forces (Hartrees/Bohr)
 Number     Number              X              Y              Z
 -------------------------------------------------------------------
      1        8          -0.000431346   -0.005452820   -0.000749894
      2        8          -0.000559031   -0.006004417   -0.003405136
      3        8          -0.001105678    0.011175000   -0.014774699
      4        6           0.000478878   -0.002560520    0.000067447
      5        6          -0.003550724    0.002596849   -0.001575934
      6        6          -0.000433849   -0.000894702    0.024066133
      7        6           0.000942840   -0.001227651    0.000049391
      8        1           0.002512133   -0.000574526   -0.001030935
      9        1           0.000532784    0.000620497    0.001062625
     10        1          -0.000043919   -0.001048662   -0.000950841
     11        1          -0.000815423   -0.000585161    0.000732438
     12        1           0.001459692    0.003698129   -0.003276227
     13        1          -0.000222755   -0.000115793    0.000355103
     14        1           0.000316520   -0.000290987   -0.000000352
     15        1           0.000919876    0.000664764   -0.000569117
 -------------------------------------------------------------------
 Cartesian Forces:  Max     0.024066133 RMS     0.004889003

 GradGradGradGradGradGradGradGradGradGradGradGradGradGradGradGradGradGrad
 Berny optimization.
 Using GEDIIS/GDIIS optimizer.
 FormGI is forming the generalized inverse of G from B-inverse, IUseBI=4.
 Internal  Forces:  Max     0.015856635 RMS     0.002970239
 Search for a local minimum.
 Step number   3 out of a maximum of   70
 All quantities printed in internal units (Hartrees-Bohrs-Radians)
 Mixed Optimization -- RFO/linear search
 Update second derivatives using D2CorX and points    2    3
 DE= -3.05D-05 DEPred=-1.93D-03 R= 1.58D-02
 Trust test= 1.58D-02 RLast= 4.56D-01 DXMaxT set to 2.52D-01
 ITU= -1  1  0
 Use linear search instead of GDIIS.
     Eigenvalues ---    0.00465   0.00521   0.01110   0.01279   0.02144
     Eigenvalues ---    0.04775   0.05258   0.05614   0.05672   0.05868
     Eigenvalues ---    0.07955   0.10075   0.10658   0.15362   0.16000
     Eigenvalues ---    0.16000   0.16000   0.16000   0.16034   0.16207
     Eigenvalues ---    0.17596   0.20285   0.24082   0.25026   0.25066
     Eigenvalues ---    0.30394   0.30763   0.34128   0.34212   0.34295
     Eigenvalues ---    0.34316   0.34340   0.34345   0.34440   0.40776
     Eigenvalues ---    0.41484   0.51555   0.52928   0.93776
 RFO step:  Lambda=-2.15647325D-03 EMin= 4.64905354D-03
 Quartic linear search produced a step of -0.49436.
 Iteration  1 RMS(Cart)=  0.04863634 RMS(Int)=  0.00263663
 Iteration  2 RMS(Cart)=  0.00380560 RMS(Int)=  0.00052065
 Iteration  3 RMS(Cart)=  0.00001067 RMS(Int)=  0.00052059
 Iteration  4 RMS(Cart)=  0.00000001 RMS(Int)=  0.00052059
 Variable       Old X    -DE/DX   Delta X   Delta X   Delta X     New X
                                 (Linear)    (Quad)   (Total)
    R1        2.65568  -0.00194   0.00735  -0.01689  -0.00954   2.64614
    R2        1.80849   0.00451   0.00272   0.00377   0.00649   1.81498
    R3        2.52389   0.00445   0.00523   0.00358   0.00882   2.53271
    R4        2.69500   0.00160  -0.00064   0.00625   0.00561   2.70061
    R5        2.25268   0.01586   0.00571   0.00719   0.01291   2.26559
    R6        2.89580   0.00017  -0.00354   0.00384   0.00030   2.89610
    R7        2.88836  -0.00065  -0.00354   0.00291  -0.00063   2.88773
    R8        2.07612  -0.00071  -0.00233   0.00372   0.00138   2.07750
    R9        2.06930  -0.00001   0.00116  -0.00375  -0.00259   2.06672
   R10        2.06845   0.00012   0.00004   0.00039   0.00043   2.06888
   R11        2.07872  -0.00085  -0.00100  -0.00019  -0.00120   2.07752
   R12        2.06967   0.00001  -0.00012  -0.00018  -0.00030   2.06937
   R13        2.06988   0.00001  -0.00020   0.00001  -0.00020   2.06968
   R14        2.06165  -0.00016   0.00077  -0.00137  -0.00060   2.06105
    A1        1.89606   0.00084  -0.00428   0.01303   0.00875   1.90481
    A2        2.00915   0.00152  -0.00737   0.02654   0.01917   2.02832
    A3        1.99552  -0.00325  -0.01149  -0.00485  -0.01650   1.97903
    A4        1.93623  -0.00122  -0.00168  -0.01167  -0.01357   1.92266
    A5        1.83388   0.00262   0.00097   0.02274   0.02378   1.85766
    A6        1.89820   0.00327   0.00862  -0.00924  -0.00081   1.89740
    A7        1.91285  -0.00006   0.00466  -0.00119   0.00356   1.91641
    A8        1.88345  -0.00138  -0.00092   0.00598   0.00519   1.88863
    A9        1.94376  -0.00244   0.00679  -0.02675  -0.01992   1.92384
   A10        1.90298   0.00222   0.00279   0.00552   0.00830   1.91128
   A11        1.92083   0.00093   0.00067   0.00595   0.00660   1.92744
   A12        1.91107  -0.00014  -0.00368   0.00533   0.00170   1.91277
   A13        1.88781   0.00067  -0.00208   0.00661   0.00456   1.89237
   A14        1.89681  -0.00126  -0.00494   0.00399  -0.00101   1.89580
   A15        2.15514   0.00486  -0.00441   0.03347   0.02907   2.18421
   A16        1.93682  -0.00108  -0.00126  -0.00371  -0.00488   1.93193
   A17        2.18566  -0.00299   0.00576  -0.02537  -0.01946   2.16619
   A18        1.92770  -0.00084  -0.00074  -0.00127  -0.00201   1.92569
   A19        1.92693   0.00018   0.00038  -0.00139  -0.00102   1.92591
   A20        1.84153   0.00189   0.00421   0.00513   0.00933   1.85086
   A21        1.89721   0.00018   0.00782  -0.01341  -0.00559   1.89161
   A22        1.93503  -0.00052  -0.00576   0.00561  -0.00016   1.93487
   A23        1.93542  -0.00087  -0.00623   0.00599  -0.00025   1.93517
    D1       -1.17674  -0.00176   0.05646  -0.14099  -0.08465  -1.26139
    D2        0.97755  -0.00084   0.05798  -0.16625  -0.10817   0.86937
    D3        3.00853  -0.00159   0.05662  -0.15218  -0.09554   2.91299
    D4       -0.06045   0.00350   0.05877   0.00411   0.06533   0.00488
    D5       -3.09402  -0.00383  -0.04672  -0.03635  -0.08551   3.10365
    D6        1.04479  -0.00004   0.00676  -0.01242  -0.00567   1.03912
    D7       -1.05404   0.00016  -0.00280   0.00605   0.00326  -1.05079
    D8        3.13694  -0.00001   0.00196  -0.00338  -0.00142   3.13552
    D9       -3.05689  -0.00091   0.00334  -0.02835  -0.02497  -3.08186
   D10       -0.94616  -0.00117   0.00500  -0.03507  -0.03006  -0.97622
   D11        1.13283  -0.00080   0.00107  -0.02327  -0.02214   1.11069
   D12        1.05167   0.00049   0.00720  -0.00225   0.00489   1.05656
   D13       -3.12078   0.00023   0.00886  -0.00897  -0.00020  -3.12099
   D14       -1.04180   0.00061   0.00493   0.00283   0.00772  -1.03408
   D15       -1.00359   0.00029   0.00043  -0.00341  -0.00295  -1.00654
   D16        1.10714   0.00003   0.00209  -0.01013  -0.00804   1.09910
   D17       -3.09706   0.00041  -0.00184   0.00167  -0.00011  -3.09717
   D18        2.81489   0.00525   0.10992  -0.07966   0.02940   2.84429
   D19       -0.21640  -0.00282   0.00143  -0.12542  -0.12320  -0.33960
   D20       -1.25911   0.00260   0.10023  -0.10087  -0.00144  -1.26055
   D21        1.99279  -0.00548  -0.00826  -0.14662  -0.15404   1.83875
   D22        0.81470   0.00356   0.11017  -0.10405   0.00531   0.82002
   D23       -2.21659  -0.00451   0.00168  -0.14980  -0.14728  -2.36387
         Item               Value     Threshold  Converged?
 Maximum Force            0.015857     0.000450     NO 
 RMS     Force            0.002970     0.000300     NO 
 Maximum Displacement     0.125584     0.001800     NO 
 RMS     Displacement     0.049819     0.001200     NO 
 Predicted change in Energy=-2.022445D-03
 GradGradGradGradGradGradGradGradGradGradGradGradGradGradGradGradGradGrad

                          Input orientation:                          
 ---------------------------------------------------------------------
 Center     Atomic      Atomic             Coordinates (Angstroms)
 Number     Number       Type             X           Y           Z
 ---------------------------------------------------------------------
      1          8           0       -2.047479    0.797726    0.316552
      2          8           0        1.221619   -0.592479    0.375434
      3          8           0        0.468107    1.281503   -0.626574
      4          6           0       -1.114650   -0.245272    0.369073
      5          6           0       -1.471202   -1.426726   -0.539631
      6          6           0        0.272019    0.268462   -0.016122
      7          6           0        2.565483   -0.249786    0.030574
      8          1           0       -1.079012   -0.578286    1.416182
      9          1           0       -0.743989   -2.233772   -0.413423
     10          1           0       -2.472273   -1.791978   -0.288555
     11          1           0       -1.465309   -1.115431   -1.593998
     12          1           0       -1.963766    1.252943   -0.525009
     13          1           0        2.837027    0.715371    0.470917
     14          1           0        2.672465   -0.175601   -1.056890
     15          1           0        3.192061   -1.048573    0.429171
 ---------------------------------------------------------------------
                    Distance matrix (angstroms):
                    1          2          3          4          5
     1  O    0.000000
     2  O    3.552906   0.000000
     3  O    2.729781   2.254686   0.000000
     4  C    1.400276   2.361936   2.414016   0.000000
     5  C    2.452209   2.963881   3.332114   1.532549   0.000000
     6  C    2.402262   1.340252   1.198897   1.528119   2.487276
     7  C    4.739038   1.429104   2.678745   3.695670   4.243246
     8  H    2.010105   2.525125   3.166267   1.099366   2.167687
     9  H    3.379634   2.679506   3.724482   2.168830   1.093659
    10  H    2.693172   3.940117   4.266894   2.160537   1.094803
    11  H    2.765735   3.372199   3.227894   2.175727   1.099377
    12  H    0.960445   3.789863   2.434162   1.940369   2.724603
    13  H    4.887638   2.080657   2.671474   4.068040   4.916362
    14  H    5.011146   2.080936   2.677221   4.047278   4.359225
    15  H    5.556463   2.023253   3.736813   4.381399   4.777823
                    6          7          8          9         10
     6  C    0.000000
     7  C    2.351752   0.000000
     8  H    2.143306   3.912820   0.000000
     9  H    2.729706   3.884062   2.490046   0.000000
    10  H    3.442495   5.278180   2.514031   1.788223   0.000000
    11  H    2.724548   4.431237   3.082034   1.778974   1.782098
    12  H    2.495377   4.804265   2.811479   3.695604   3.096133
    13  H    2.648811   1.095065   4.231127   4.722624   5.920495
    14  H    2.653776   1.095228   4.511299   4.040083   5.447141
    15  H    3.234117   1.090661   4.408789   4.196087   5.757818
                   11         12         13         14         15
    11  H    0.000000
    12  H    2.645826   0.000000
    13  H    5.111341   4.932390   0.000000
    14  H    4.277025   4.880397   1.776261   0.000000
    15  H    5.078265   5.726255   1.799803   1.800121   0.000000
 Stoichiometry    C4H8O3
 Framework group  C1[X(C4H8O3)]
 Deg. of freedom    39
 Full point group                 C1      NOp   1
 Largest Abelian subgroup         C1      NOp   1
 Largest concise Abelian subgroup C1      NOp   1
                         Standard orientation:                         
 ---------------------------------------------------------------------
 Center     Atomic      Atomic             Coordinates (Angstroms)
 Number     Number       Type             X           Y           Z
 ---------------------------------------------------------------------
      1          8           0       -2.029076   -0.863056   -0.388981
      2          8           0        1.228551    0.555042   -0.387838
      3          8           0        0.478973   -1.339594    0.577614
      4          6           0       -1.104586    0.188331   -0.414989
      5          6           0       -1.482112    1.353369    0.506350
      6          6           0        0.281654   -0.319409   -0.020418
      7          6           0        2.571023    0.218551   -0.031634
      8          1           0       -1.059152    0.536897   -1.456643
      9          1           0       -0.760320    2.168202    0.400739
     10          1           0       -2.483152    1.713901    0.248419
     11          1           0       -1.486293    1.026760    1.556083
     12          1           0       -1.951654   -1.329810    0.446843
     13          1           0        2.856060   -0.737773   -0.482594
     14          1           0        2.665505    0.129376    1.055862
     15          1           0        3.195548    1.028268   -0.410932
 ---------------------------------------------------------------------
 Rotational constants (GHZ):           4.8712166           1.8279658           1.5010441
 Standard basis: 6-311++G(d,p) (5D, 7F)
 There are   217 symmetry adapted cartesian basis functions of A   symmetry.
 There are   210 symmetry adapted basis functions of A   symmetry.
   210 basis functions,   324 primitive gaussians,   217 cartesian basis functions
    28 alpha electrons       28 beta electrons
       nuclear repulsion energy       324.5664797057 Hartrees.
 NAtoms=   15 NActive=   15 NUniq=   15 SFac= 1.00D+00 NAtFMM=   60 NAOKFM=F Big=F
 Integral buffers will be    131072 words long.
 Raffenetti 2 integral format.
 Two-electron integral symmetry is turned on.
 R6APFD:  NTU= -4 IXU= 1 FactS= 1.050
 Nuclear repulsion after empirical dispersion term =      324.5575225646 Hartrees.
 One-electron integrals computed using PRISM.
 NBasis=   210 RedAO= T EigKep=  1.98D-05  NBF=   210
 NBsUse=   210 1.00D-06 EigRej= -1.00D+00 NBFU=   210
 Initial guess from the checkpoint file:  "MELA0066.chk"
 B after Tr=    -0.000000   -0.000000   -0.000000
         Rot=    0.999958   -0.004674    0.000238    0.007863 Ang=  -1.05 deg.
 ExpMin= 3.60D-02 ExpMax= 8.59D+03 ExpMxC= 1.30D+03 IAcc=3 IRadAn=         5 AccDes= 0.00D+00
 Harris functional with IExCor= 1009 and IRadAn=       5 diagonalized for initial guess.
 HarFok:  IExCor= 1009 AccDes= 0.00D+00 IRadAn=         5 IDoV= 1 UseB2=F ITyADJ=14
 ICtDFT=  3500011 ScaDFX=  1.000000  1.000000  1.000000  1.000000
 FoFCou: FMM=F IPFlag=           0 FMFlag=      100000 FMFlg1=           0
         NFxFlg=           0 DoJE=T BraDBF=F KetDBF=T FulRan=T
         wScrn=  0.000000 ICntrl=       500 IOpCl=  0 I1Cent=   200000004 NGrid=           0
         NMat0=    1 NMatS0=      1 NMatT0=    0 NMatD0=    1 NMtDS0=    0 NMtDT0=    0
 Petite list used in FoFCou.
 Requested convergence on RMS density matrix=1.00D-08 within  32 cycles.
 Requested convergence on MAX density matrix=1.00D-06.
 Requested convergence on             energy=1.00D-06.
 No special actions if energy rises.
 SCF Done:  E(RM08HX) =  -382.906387602     A.U. after   12 cycles
            NFock= 12  Conv=0.91D-08     -V/T= 2.0039
 QCSCF skips out because SCF is already converged.
 R6APFD:  NTU= -4 IXU= 1 FactS= 1.050
 Calling FoFJK, ICntrl=      2127 FMM=F ISym2X=0 I1Cent= 0 IOpClX= 0 NMat=1 NMatS=1 NMatT=0.
 ***** Axes restored to original set *****
 -------------------------------------------------------------------
 Center     Atomic                   Forces (Hartrees/Bohr)
 Number     Number              X              Y              Z
 -------------------------------------------------------------------
      1        8          -0.004290528   -0.000537968    0.000406620
      2        8          -0.000952881    0.002478085   -0.000882972
      3        8           0.002958073    0.001316231   -0.001860931
      4        6           0.001581419    0.000561255    0.001648341
      5        6          -0.000032998    0.001170254   -0.000613918
      6        6          -0.000618401   -0.006141625    0.003224651
      7        6          -0.001917083    0.001855030   -0.001161544
      8        1           0.000336446    0.000148615   -0.001190629
      9        1           0.000335805   -0.001460801   -0.000038210
     10        1           0.000322333   -0.000125453   -0.000230278
     11        1          -0.000329034    0.000100069    0.000868908
     12        1           0.002584421    0.001175433   -0.000453740
     13        1          -0.000013466   -0.000093725    0.000798311
     14        1          -0.000033838   -0.000710899   -0.000333669
     15        1           0.000069732    0.000265499   -0.000180942
 -------------------------------------------------------------------
 Cartesian Forces:  Max     0.006141625 RMS     0.001628700

 GradGradGradGradGradGradGradGradGradGradGradGradGradGradGradGradGradGrad
 Berny optimization.
 Using GEDIIS/GDIIS optimizer.
 FormGI is forming the generalized inverse of G from B-inverse, IUseBI=4.
 Internal  Forces:  Max     0.005900578 RMS     0.001473180
 Search for a local minimum.
 Step number   4 out of a maximum of   70
 All quantities printed in internal units (Hartrees-Bohrs-Radians)
 Mixed Optimization -- RFO/linear search
 Update second derivatives using D2CorX and points    2    3    4
 DE= -2.05D-03 DEPred=-2.02D-03 R= 1.02D+00
 TightC=F SS=  1.41D+00  RLast= 3.27D-01 DXNew= 4.2426D-01 9.8187D-01
 Trust test= 1.02D+00 RLast= 3.27D-01 DXMaxT set to 4.24D-01
 ITU=  1 -1  1  0
 Use linear search instead of GDIIS.
     Eigenvalues ---    0.00372   0.00520   0.00885   0.01279   0.02141
     Eigenvalues ---    0.04622   0.05242   0.05677   0.05777   0.05847
     Eigenvalues ---    0.07900   0.10221   0.10602   0.15687   0.15953
     Eigenvalues ---    0.16000   0.16000   0.16000   0.16060   0.16404
     Eigenvalues ---    0.17393   0.20153   0.24425   0.24994   0.30338
     Eigenvalues ---    0.30743   0.32709   0.34126   0.34215   0.34314
     Eigenvalues ---    0.34333   0.34340   0.34427   0.35624   0.41152
     Eigenvalues ---    0.42110   0.52637   0.58559   0.91936
 RFO step:  Lambda=-1.08789192D-03 EMin= 3.72153259D-03
 Quartic linear search produced a step of  0.08280.
 Iteration  1 RMS(Cart)=  0.06854802 RMS(Int)=  0.00424710
 Iteration  2 RMS(Cart)=  0.00392708 RMS(Int)=  0.00009677
 Iteration  3 RMS(Cart)=  0.00001183 RMS(Int)=  0.00009609
 Iteration  4 RMS(Cart)=  0.00000000 RMS(Int)=  0.00009609
 Variable       Old X    -DE/DX   Delta X   Delta X   Delta X     New X
                                 (Linear)    (Quad)   (Total)
    R1        2.64614   0.00161  -0.00079  -0.00509  -0.00588   2.64026
    R2        1.81498   0.00118   0.00054   0.00334   0.00388   1.81886
    R3        2.53271  -0.00497   0.00073  -0.01065  -0.00992   2.52279
    R4        2.70061  -0.00125   0.00046  -0.00055  -0.00009   2.70053
    R5        2.26559   0.00254   0.00107   0.00446   0.00553   2.27111
    R6        2.89610   0.00018   0.00002   0.00320   0.00323   2.89933
    R7        2.88773  -0.00071  -0.00005  -0.00037  -0.00042   2.88730
    R8        2.07750  -0.00117   0.00011  -0.00150  -0.00138   2.07612
    R9        2.06672   0.00130  -0.00021   0.00225   0.00203   2.06875
   R10        2.06888  -0.00031   0.00004  -0.00084  -0.00081   2.06807
   R11        2.07752  -0.00081  -0.00010  -0.00244  -0.00254   2.07498
   R12        2.06937   0.00023  -0.00002   0.00071   0.00068   2.07006
   R13        2.06968   0.00028  -0.00002   0.00097   0.00095   2.07063
   R14        2.06105  -0.00022  -0.00005  -0.00152  -0.00156   2.05949
    A1        1.90481  -0.00234   0.00072  -0.00958  -0.00886   1.89595
    A2        2.02832  -0.00590   0.00159  -0.01273  -0.01115   2.01717
    A3        1.97903  -0.00010  -0.00137  -0.00359  -0.00516   1.97386
    A4        1.92266   0.00027  -0.00112  -0.00681  -0.00814   1.91452
    A5        1.85766   0.00021   0.00197   0.01700   0.01900   1.87666
    A6        1.89740  -0.00092  -0.00007  -0.01574  -0.01595   1.88144
    A7        1.91641   0.00008   0.00029  -0.00047  -0.00012   1.91629
    A8        1.88863   0.00053   0.00043   0.01110   0.01155   1.90018
    A9        1.92384   0.00106  -0.00165  -0.00457  -0.00622   1.91762
   A10        1.91128   0.00020   0.00069   0.00164   0.00232   1.91361
   A11        1.92744  -0.00057   0.00055  -0.00176  -0.00121   1.92622
   A12        1.91277  -0.00061   0.00014  -0.00063  -0.00049   1.91228
   A13        1.89237  -0.00001   0.00038   0.00576   0.00614   1.89851
   A14        1.89580  -0.00009  -0.00008  -0.00035  -0.00044   1.89536
   A15        2.18421  -0.00475   0.00241  -0.00610  -0.00404   2.18018
   A16        1.93193   0.00354  -0.00040   0.01401   0.01328   1.94521
   A17        2.16619   0.00119  -0.00161  -0.00800  -0.00993   2.15626
   A18        1.92569  -0.00035  -0.00017  -0.00218  -0.00235   1.92334
   A19        1.92591  -0.00018  -0.00008  -0.00149  -0.00158   1.92433
[...]
 ! D17   D(8,4,5,11)          -176.4345         -DE/DX =    0.0                 !
 ! D18   D(1,4,6,2)            176.7131         -DE/DX =    0.0                 !
 ! D19   D(1,4,6,3)             -3.9414         -DE/DX =    0.0                 !
 ! D20   D(5,4,6,2)            -60.5806         -DE/DX =    0.0                 !
 ! D21   D(5,4,6,3)            118.765          -DE/DX =    0.0                 !
 ! D22   D(8,4,6,2)             58.3174         -DE/DX =    0.0                 !
 ! D23   D(8,4,6,3)           -122.337          -DE/DX =    0.0                 !
 --------------------------------------------------------------------------------
 GradGradGradGradGradGradGradGradGradGradGradGradGradGradGradGradGradGrad


 ----------------------------------------------------------------------

 Electric dipole moment (input orientation):
 (Debye = 10**-18 statcoulomb cm , SI units = C m)
                  (au)            (Debye)         (10**-30 SI)
   Tot        0.118705D+01      0.301717D+01      0.100642D+02
   x          0.961386D+00      0.244360D+01      0.815097D+01
   y         -0.690685D+00     -0.175555D+01     -0.585587D+01
   z          0.881596D-01      0.224079D+00      0.747449D+00

 Dipole polarizability, Alpha (input orientation).
 (esu units = cm**3 , SI units = C**2 m**2 J**-1)
 Alpha(0;0):
               (au)            (10**-24 esu)      (10**-40 SI)
   iso        0.586504D+02      0.869109D+01      0.967015D+01
   aniso      0.159594D+02      0.236493D+01      0.263134D+01
   xx         0.663615D+02      0.983377D+01      0.109415D+02
   yx        -0.100217D+00     -0.148506D-01     -0.165235D-01
   yy         0.605771D+02      0.897660D+01      0.998781D+01
   zx         0.576452D+00      0.854213D-01      0.950440D-01
   zy        -0.255492D+01     -0.378601D+00     -0.421250D+00
   zz         0.490126D+02      0.726292D+01      0.808109D+01

 ----------------------------------------------------------------------

 Dipole orientation:
     8         -1.01058587         -0.69776884         -4.03318088
     8         -0.08256557          0.46462470          2.55217925
     8          2.19613823          1.58223893         -0.84083926
     6         -1.54139494         -0.94059614         -1.44282565
     6         -1.55584647         -3.71653556         -0.62902981
     6          0.40845831          0.52190242          0.08738917
     6          1.68842101          1.77779518          4.11395041
     1         -3.39894512         -0.08750462         -1.04017825
     1         -2.08777367         -3.89665656          1.36256266
     1         -2.90842356         -4.75912042         -1.79564573
     1          0.32098325         -4.54853566         -0.91150779
     1          0.52938272          0.25938138         -4.20378991
     1          1.75904646          3.77833613          3.58966757
     1          3.57647874          0.95889608          3.89803319
     1          1.01409863          1.55429158          6.04824857

 Electric dipole moment (dipole orientation):
 (Debye = 10**-18 statcoulomb cm , SI units = C m)
                  (au)            (Debye)         (10**-30 SI)
   Tot        0.118705D+01      0.301717D+01      0.100642D+02
   x          0.000000D+00      0.000000D+00      0.000000D+00
   y          0.000000D+00      0.000000D+00      0.000000D+00
   z          0.118705D+01      0.301717D+01      0.100642D+02

 Dipole polarizability, Alpha (dipole orientation).
 (esu units = cm**3 , SI units = C**2 m**2 J**-1)
 Alpha(0;0):
               (au)            (10**-24 esu)      (10**-40 SI)
   iso        0.586504D+02      0.869109D+01      0.967015D+01
   aniso      0.159594D+02      0.236493D+01      0.263134D+01
   xx         0.552863D+02      0.819258D+01      0.911547D+01
   yx         0.708257D+01      0.104953D+01      0.116776D+01
   yy         0.559729D+02      0.829432D+01      0.922868D+01
   zx         0.858371D+00      0.127198D+00      0.141526D+00
   zy         0.255075D+01      0.377982D+00      0.420562D+00
   zz         0.646921D+02      0.958638D+01      0.106663D+02

 ----------------------------------------------------------------------
 1\1\GINC-PITOMBA\Freq\RM08HX\6-311++G(d,p)\C4H8O3\VALTER\07-Oct-2025\0
 \\#N Geom=AllCheck Guess=TCheck SCRF=Check GenChk RM08HX/6-311++G(d,p)
  Freq\\MELA0066\\0,1\O,-2.0987599634,0.7543616987,0.0597634019\O,1.184
 6495197,-0.6366039352,0.278748012\O,0.4594740236,1.342103039,-0.487089
 3603\C,-1.15433855,-0.2544344183,0.3142933209\C,-1.4529181766,-1.51438
 49484,-0.5022487463\C,0.2427726776,0.2570501578,-0.0109271588\C,2.5237
 628273,-0.2304737507,-0.0145522496\H,-1.1665278875,-0.50043451,1.38889
 38664\H,-0.7507883774,-2.3163547285,-0.2514641286\H,-2.4736441263,-1.8
 469964862,-0.2894260803\H,-1.3803578874,-1.2932662383,-1.5738952258\H,
 -1.6323569863,1.5112449072,-0.3122310754\H,2.7780044863,0.6723630505,0
 .5505458788\H,2.6302045347,-0.0224949848,-1.0843610874\H,3.1619238856,
 -1.0635788527,0.2816506326\\Version=ES64L-G16RevB.01\State=1-A\HF=-382
 .9078761\RMSD=1.206e-09\RMSF=3.057e-06\ZeroPoint=0.1231087\Thermal=0.1
 314033\Dipole=0.9613861,-0.690685,0.0881596\DipoleDeriv=-0.6477827,0.2
 686337,-0.0620085,0.2279514,-0.796871,-0.021422,-0.0664847,0.0103447,-
 0.4836859,-1.5538269,0.3171003,-0.084188,0.3792983,-0.7234031,0.160150
 7,-0.0613896,0.16198,-0.3478355,-0.7514221,-0.1865634,0.063312,0.12620
 02,-1.0744254,0.2447575,-0.0097252,0.3318658,-0.4458273,0.2725431,-0.2
 997548,0.0764596,-0.3659317,0.5604202,0.0425573,0.1204765,0.0014284,0.
 3337127,-0.0079414,-0.0435539,0.0008327,0.0548684,-0.0400635,-0.053166
 6,0.0333243,-0.0594662,0.0303061,1.5212375,-0.0676943,0.0343076,-0.500
 5642,1.3983587,-0.4222894,0.0981373,-0.5062575,0.4118127,0.824052,0.00
 37197,-0.0271787,0.103992,0.2661687,-0.0014397,-0.0886137,0.0060522,0.
 278992,0.0057372,0.0033553,-0.0178825,0.0235206,0.0057945,0.0134921,-0
 .0446753,0.0454251,-0.109085,0.0200768,0.0979165,-0.0287106,0.0675141,
 -0.0214421,0.0019222,-0.0375791,0.0288179,0.0532811,-0.0799175,-0.0810
 594,0.0235654,-0.0590886,0.0389045,-0.0078125,0.0361592,-0.0095092,0.0
 629086,0.0772024,-0.015754,0.0249855,-0.0140165,0.0312136,0.0595293,0.
 0022576,-0.0019512,-0.0957856,0.3592659,-0.0657291,0.0332728,-0.006413
 1,0.3145058,-0.0005765,-0.0016761,0.0127789,0.2925435,-0.0118522,0.021
 81,0.0151302,-0.0901907,-0.0176374,-0.0745357,-0.0086121,-0.0741104,0.
 016722,-0.0106922,0.0088494,-0.0425334,-0.0466788,0.0746826,0.0194288,
 0.0594849,0.0094007,-0.0783853,-0.0166796,0.038724,-0.0093641,0.099538
 6,-0.016206,0.0394045,-0.0310839,0.0432008,0.0803258\Polar=66.3615463,
 -0.1002165,60.5770949,0.5764515,-2.5549231,49.0126067\Quadrupole=0.766
 0146,-1.2573505,0.4913359,0.6104502,0.583535,0.6269863\PG=C01 [X(C4H8O
 3)]\NImag=0\\0.34400830,0.06409222,0.55536646,-0.07292542,-0.20264457,
 0.13278649,-0.01327358,-0.00029992,0.00100278,0.51645771,-0.00187678,0
 .00409962,-0.00079548,-0.07645757,0.35247335,0.00225756,-0.00118850,0.
 00166317,-0.00564200,-0.10768880,0.12412677,-0.00295942,-0.00950434,0.
 00414014,0.01664406,0.04541789,-0.01791896,0.13580070,0.00420882,0.007
 48075,-0.00255840,0.04705728,-0.08831210,0.04558011,0.10431850,0.71499
 591,-0.00134571,-0.00095354,0.00225119,-0.01854660,0.04566864,0.012468
 91,-0.05329175,-0.29518478,0.16335687,-0.16347706,0.09818410,-0.025665
 85,-0.02560646,0.00084764,0.00281029,0.00225209,0.00055007,0.00194604,
 0.48087063,0.05006101,-0.16848077,0.04036234,0.02648990,0.00819910,-0.
 00158258,-0.02024711,-0.02083677,0.02075725,-0.01528486,0.50543971,-0.
 00475319,0.03188436,-0.07469367,-0.00813291,0.00087969,0.00979136,0.01
 239972,0.02012167,0.01747437,0.00496739,-0.04926457,0.55995220,0.00188
 350,0.03618264,0.01011486,-0.00318394,0.00027619,0.00082085,-0.0036602
 3,-0.00158623,0.00586939,-0.08577097,-0.03290377,-0.02201440,0.5845212
 1,0.00929802,-0.05065040,-0.01309789,0.00079111,-0.00297003,-0.0000725
 6,0.00025455,0.00225092,-0.00039600,-0.01960373,-0.13910939,-0.0510844
 8,-0.02494486,0.52076248,0.00357824,0.00387442,0.00838291,0.00135095,-
 0.00077791,0.00037143,0.00247032,0.00247007,-0.00396526,-0.01516560,-0
 .05443791,-0.11721846,-0.00778336,-0.04721453,0.54321140,-0.00238385,-
 0.00119140,0.00143085,-0.23089205,0.07378054,-0.01657680,-0.15015672,-
 0.13530297,0.06303647,-0.16935998,-0.02553837,0.01962053,-0.00331946,-
 0.01624572,-0.00431946,0.61656131,0.02434094,-0.01073553,0.00082924,0.
 08451053,-0.17993238,0.03813130,-0.11881453,-0.60923704,0.23204847,-0.
 04154515,-0.07762124,0.00070020,-0.02794656,-0.01415988,0.00425033,0.0
 6883475,0.88259638,-0.00914945,0.00343476,-0.00163056,-0.02174786,0.03
 941774,-0.08461246,0.05600764,0.23367617,-0.18482158,0.02607949,-0.001
 88620,-0.09599077,-0.02197890,-0.00538665,0.00736510,-0.06066182,-0.27
 263632,0.36121467,0.00160324,-0.00089756,0.00022112,-0.18815580,-0.031
 43626,0.02441418,0.00111871,-0.01639452,0.00615323,0.00149886,0.003564
 39,-0.00103812,0.00065703,0.00006871,-0.00042913,-0.06232452,0.0208638
 2,-0.00294388,0.48495436,0.00214815,-0.00027934,0.00000074,-0.05642720
 ,-0.10272072,0.02045111,0.00412690,-0.00492509,-0.00115047,0.00158867,
 -0.00304779,0.00322383,0.00020530,0.00000890,-0.00018920,0.02709381,0.
 01668356,-0.00813909,-0.05642505,0.60341140,-0.00097624,0.00021340,0.0
 0045674,0.03508014,0.01832482,-0.07765073,-0.00258011,0.00070752,-0.00
 674336,-0.00032436,0.00291353,0.00397754,0.00050419,0.00036226,-0.0000
 9405,-0.00523992,-0.00763207,0.00639292,0.03268775,-0.00334394,0.58262
 742,-0.00300686,0.01862284,-0.02404159,-0.00124656,0.00033134,-0.00243
 543,-0.00453224,-0.00478816,-0.00215795,-0.05073344,-0.00726956,0.0173
 1258,0.00253025,0.00058409,-0.00907101,0.00353619,-0.00480092,0.033003
 05,0.00000096,-0.00026115,-0.00064039,0.05585700,0.00768622,-0.0167265
 7,0.02544271,0.00047163,0.00007870,-0.00075331,-0.00198095,-0.00103491
 ,-0.00140921,-0.00476152,-0.05216340,0.04801397,0.00140915,0.00428530,
 -0.02904463,-0.00200236,-0.00269375,0.01430486,-0.00027766,-0.00021013
 ,-0.00056973,-0.00211810,0.07204830,-0.00591431,0.00995207,0.00102270,
 0.00016148,-0.00024168,0.00108325,0.00119777,-0.00095873,0.00051691,0.
 01311235,0.04959093,-0.28408284,0.00194192,0.00073996,-0.01867590,-0.0
 0034623,0.00308857,-0.00837972,0.00067894,0.00004042,0.00027915,-0.008
 29473,-0.05765366,0.30889487,0.00089778,-0.00189057,-0.00084935,-0.001
 72470,-0.00089994,-0.00027085,0.00006109,0.00012255,-0.00026541,0.0033
 6721,-0.00533916,0.00233238,-0.15831396,0.12887082,-0.04071388,0.00046
 266,-0.00013983,0.00070255,-0.00026334,-0.00016550,-0.00006046,0.00041
 667,0.00050100,0.00027927,0.16860852,-0.00067123,-0.00662440,-0.002647
 72,-0.00065359,0.00134922,-0.00008383,-0.00067205,0.00080159,-0.000323
 72,0.01690104,-0.01496809,0.01012293,0.12511158,-0.19049157,0.04435630
 ,0.00279634,-0.00235854,0.00080310,-0.00077200,0.00024467,0.00017708,0
 .00005891,0.00071427,-0.00043759,-0.13876993,0.20708776,-0.00075381,-0
 .00499091,0.00027998,-0.00013900,-0.00050751,-0.00051377,-0.00000876,-
 0.00000582,0.00011958,0.01308375,-0.00984491,0.00452452,-0.04154302,0.
 04657671,-0.06282961,-0.00030614,0.00047474,0.00034421,-0.00009458,0.0
 0006096,0.00003499,0.00036279,0.00072366,0.00002712,0.04474811,-0.0479
 8600,0.06300270,0.00130186,0.00009018,-0.00016961,-0.00037124,-0.00056
 700,0.00000700,-0.00000772,-0.00055094,0.00023963,-0.00632133,-0.00088
 389,0.00159661,-0.28393628,-0.07675294,0.05129154,0.00079541,0.0008364
 5,-0.00135363,0.00041934,0.00000058,-0.00006952,0.00018141,-0.00017511
 ,-0.00042836,-0.01554656,-0.00701693,0.00421082,0.30435954,0.00076397,
 0.00293599,0.00041247,-0.00072108,0.00133540,0.00040783,-0.00148869,-0
 .00090231,0.00172239,-0.02870520,-0.01187502,0.00355930,-0.07462600,-0
 .06846848,0.01759948,0.00372546,-0.00427712,-0.00466102,-0.00000796,0.
 00016468,0.00020586,0.00083458,0.00114597,0.00053077,0.02186986,0.0086
 7854,-0.00585915,0.08453047,0.07393293,0.00032140,0.00197615,-0.000179
 67,-0.00093311,0.00032081,0.00033350,-0.00127044,-0.00106195,0.0014972
 5,-0.01981958,-0.00705532,0.00292225,0.05300571,0.01728117,-0.05736078
 ,0.00165914,-0.00294531,-0.00299297,0.00020966,0.00000352,-0.00008250,
 -0.00027967,0.00089465,0.00077317,-0.00726969,-0.00318134,0.00022972,-
 0.05485476,-0.01507510,0.05971276,-0.00033107,0.00003703,0.00060688,-0
 .00012235,0.00024466,0.00055096,0.00001917,0.00018814,0.00032837,-0.00
 099095,0.00161883,-0.00862357,-0.04813973,-0.00444210,0.01874786,0.000
 68195,0.00045343,-0.00164154,-0.00007354,-0.00005515,-0.00003144,0.000
 50292,-0.00156149,-0.00084396,0.00179378,0.00256696,-0.02022954,-0.000
 59254,-0.00582692,0.02950164,0.04700462,-0.00036101,0.00279538,0.00264
 636,0.00021883,-0.00014577,0.00015304,0.00025865,-0.00038958,0.0005919
 0,0.00065822,0.00436876,-0.03022019,-0.00359420,-0.05874489,0.05729921
 ,0.00109103,0.00233269,-0.00112251,-0.00004242,0.00002005,-0.00006482,
 -0.00143496,-0.00457124,-0.00317225,-0.00400219,-0.00408972,0.02214651
 ,0.00049014,-0.00282691,0.00886570,0.00677613,0.06141230,0.00046750,0.
 00006278,0.00295683,-0.00076239,0.00011637,0.00026360,-0.00067359,-0.0
 0094374,0.00060588,-0.00092640,0.00400530,-0.01863827,0.01909798,0.055
 14308,-0.29928461,0.00191174,0.00087907,-0.00091594,0.00006769,-0.0000
 5660,-0.00022245,-0.00121095,-0.00318149,-0.00030048,0.00118222,0.0002
 1601,-0.00450466,-0.00064315,0.00084286,-0.00492563,-0.01854126,-0.056
 75979,0.32537181,-0.16294336,-0.20393140,0.10627318,0.00347772,-0.0046
 6338,0.00177680,0.00275934,-0.00530311,0.00133351,0.01439306,0.0247172
 1,-0.01317125,-0.00311304,0.00196031,-0.00027128,-0.00621963,0.0155656
 8,-0.00550564,-0.00093334,-0.00015043,0.00022181,-0.00345377,0.0027594
 3,-0.00139514,0.00022064,0.00089941,0.00061223,-0.00014570,-0.00025962
 ,-0.00013130,0.00028115,-0.00007499,0.00015353,0.15561496,-0.15920185,
 -0.31926149,0.15204631,-0.00162146,-0.00121340,0.00080443,-0.00262791,
 -0.00184858,-0.00082519,-0.00870264,-0.03024292,0.01240251,0.00242178,
 -0.00268129,0.00172069,0.00141806,0.00218580,0.00065082,0.00011667,0.0
 0036361,-0.00010903,0.00017162,-0.00085970,-0.00140293,-0.00018542,-0.
 00040957,-0.00084130,0.00002919,0.00017035,0.00004419,0.00005043,-0.00
 018648,-0.00027322,0.16833774,0.35400278,0.08886423,0.15842239,-0.0733
 1174,0.00033513,0.00111464,-0.00020373,0.00007631,-0.00067995,-0.00407
 033,-0.00009605,0.00695571,-0.00769158,0.00200903,-0.00285927,0.000209
 30,0.00049733,-0.00086247,0.00413156,0.00013458,-0.00007136,0.00013871
 ,-0.00259543,0.00318754,-0.00113375,0.00021550,-0.00095509,-0.00070544
 ,0.00013384,0.00033580,0.00004524,0.00016544,-0.00034995,-0.00045031,-
 0.08980673,-0.16421057,0.08308823,-0.00022743,0.00024575,0.00003916,-0
 .02091148,-0.02566566,-0.01548812,0.00055365,0.00338447,-0.00156250,0.
 00005836,0.00018346,0.00084371,0.00003063,0.00006023,0.00006576,0.0030
 9612,-0.00870355,0.00166801,-0.05800113,-0.03723782,-0.02473684,-0.000
 15322,-0.00010567,0.00000761,0.00000091,0.00019441,0.00001787,-0.00007
 668,0.00005015,-0.00003391,0.00000372,0.00000641,-0.00004319,0.0000047
 5,-0.00003103,-0.00000253,0.06751410,-0.00020630,0.00008892,0.00004309
 ,-0.00645010,-0.00139611,0.00058336,0.00006023,0.00092231,-0.00029784,
 0.00001797,-0.00015628,-0.00044988,-0.00009094,-0.00007866,0.00008054,
 0.00278804,-0.00119561,0.00112439,-0.04536515,-0.23053735,-0.11801774,
 0.00007462,0.00000532,-0.00002910,0.00002320,0.00009243,-0.00000446,-0
 .00004857,0.00000433,-0.00003855,0.00000249,0.00000774,0.00000189,0.00
 008660,-0.00002828,-0.00002403,0.05137500,0.24202856,0.00004108,0.0001
 1736,-0.00005694,0.00399477,0.01142831,0.00751269,0.00129693,0.0006254
 3,-0.00033099,-0.00003716,-0.00005449,-0.00031996,0.00000822,0.0000008
 0,-0.00006923,-0.00025607,-0.00182401,0.00129142,-0.03027358,-0.119148
 40,-0.12708816,0.00007740,0.00007112,-0.00006642,0.00000130,-0.0000122
 4,-0.00001575,0.00001576,0.00000400,0.00002847,0.00001084,-0.00002310,
 0.00003134,-0.00014588,-0.00001709,0.00000478,0.02842752,0.12588748,0.
 12781628,-0.00026447,0.00017934,-0.00019650,-0.01639476,-0.00577565,0.
 03380134,0.00035036,0.00325023,-0.00127999,-0.00011418,-0.00050381,-0.
 00084724,-0.00012893,0.00000355,0.00019263,0.00316163,-0.00692951,0.00
 450915,-0.04919518,-0.00118719,0.00849820,0.00013822,0.00016978,-0.000
 19465,0.00003480,0.00005816,0.00004118,-0.00003352,-0.00007487,-0.0000
 7409,-0.00004513,0.00002240,-0.00006219,-0.00000277,-0.00003394,0.0000
 0806,0.00203886,0.00267510,-0.00596785,0.05709609,-0.00016730,-0.00006
 959,-0.00000940,-0.00483598,-0.00197769,0.00902355,-0.00096191,-0.0000
 2391,0.00009074,-0.00000705,0.00000849,0.00017544,0.00003772,0.0000111
 3,0.00003998,0.00187917,0.00074592,-0.00088523,-0.00297173,-0.05782408
 ,0.04617037,-0.00001919,-0.00002469,-0.00005319,0.00000947,0.00000303,
 0.00005181,-0.00000020,-0.00002042,-0.00003686,-0.00004398,0.00003032,
 -0.00004799,0.00017240,0.00000291,-0.00001944,0.00246652,0.00580717,-0
 .02594320,0.00697019,0.05568581,0.00016582,-0.00011671,0.00007682,0.00
 576818,-0.00000493,0.00331702,-0.00096405,-0.00153737,0.00081770,-0.00
 005727,-0.00022673,-0.00034916,-0.00005635,-0.00000204,-0.00000520,-0.
 00216908,0.00388135,-0.00073979,0.01816892,0.04645547,-0.30903009,-0.0
 0000398,-0.00000600,0.00006525,-0.00000986,-0.00004660,-0.00002830,0.0
 0001478,-0.00001960,-0.00000143,0.00001028,-0.00000714,0.00001779,0.00
 001474,0.00000757,-0.00002530,-0.00006284,0.00409989,-0.01439797,-0.02
 073361,-0.05179979,0.32503405,-0.00082756,0.00008111,0.00001935,-0.034
 69655,0.02644398,-0.00810683,0.00175716,0.00084587,-0.00045673,-0.0000
 6584,0.00133572,-0.00049223,-0.00005608,0.00009798,0.00005642,-0.00363
 906,-0.00652554,0.00301284,-0.13130565,0.11674610,-0.04233280,-0.00003
 753,-0.00001436,0.00003804,-0.00001549,-0.00003107,-0.00000191,-0.0000
 2600,-0.00006415,-0.00003101,0.00000800,-0.00001204,-0.00001753,0.0000
 5998,-0.00014124,0.00006131,0.00606885,-0.00494220,0.00280670,0.003358
 97,-0.00252812,-0.00008567,0.15941682,-0.00011487,0.00006096,-0.000029
 80,-0.01207240,0.01113281,-0.00376515,0.00186078,0.00105882,-0.0003386
 5,-0.00013755,0.00048562,-0.00006479,0.00004820,0.00003587,-0.00002685
 ,-0.00312637,-0.00233326,0.00130515,0.12997672,-0.22135237,0.06066248,
 0.00001405,0.00000653,0.00000641,-0.00000436,-0.00002964,0.00000567,0.
 00001858,0.00000208,0.00000824,-0.00000846,-0.00001266,-0.00000452,-0.
 00011585,0.00000626,0.00001604,0.01377734,-0.01556448,0.00888803,0.001
 17623,-0.00235439,-0.00067739,-0.13129203,0.22885787,0.00012228,-0.000
 04345,-0.00000424,0.00821042,-0.00725471,0.00204899,-0.00088117,-0.000
 25024,0.00082288,0.00009295,-0.00023235,0.00034247,0.00000389,0.000009
 43,-0.00003703,0.00171946,0.00161690,-0.00065608,-0.04795676,0.0618629
 9,-0.07299613,-0.00002468,-0.00002047,-0.00002329,-0.00002183,-0.00000
 129,0.00003471,0.00000906,-0.00000589,0.00000062,-0.00001098,0.0000170
 3,-0.00000490,0.00004143,0.00000280,-0.00002565,0.01086030,-0.01295906
 ,0.00566046,-0.01769445,0.02324318,-0.00475141,0.04553007,-0.06598488,
 0.06958859\\-0.00000340,0.00000554,-0.00000526,-0.00000469,-0.00000208
 ,-0.00000269,0.00000108,-0.00000221,-0.00000434,0.00000403,-0.00000308
 ,0.00000239,-0.00000011,-0.00000050,0.00000205,0.00000104,0.00000398,0
 .00000063,0.00000350,0.00000042,0.00000209,-0.00000203,0.00000566,-0.0
 0000113,-0.00000107,0.00000140,0.00000526,-0.00000117,0.00000214,0.000
 00286,-0.00000039,-0.00000311,0.00000166,0.00000433,-0.00000260,-0.000
 00613,-0.00000053,0.00000062,-0.00000242,0.00000040,-0.00000574,0.0000
 0022,-0.00000100,-0.00000045,0.00000483\\\@


 THAT'S WHAT MAKES US A GREAT COUNTRY.
 THE LITTLE THINGS ARE SERIOUS AND THE BIG ONES ARE NOT.
           WILL ROGERS
 Job cpu time:       0 days  0 hours 36 minutes 33.2 seconds.
 Elapsed time:       0 days  0 hours  2 minutes 17.9 seconds.
 File lengths (MBytes):  RWF=     68 Int=      0 D2E=      0 Chk=      5 Scr=      1
 Normal termination of Gaussian 16 at Tue Oct  7 07:13:01 2025.
