 Entering Gaussian System, Link 0=g16
 Input=MEOC0014.gjf
 Output=MEOC0014.log
 Initial command:
 /usr/local/g16/l1.exe "/dados_01/scratch/Gau-2519239.inp" -scrdir="/dados_01/scratch/"
 Entering Link 1 = /usr/local/g16/l1.exe PID=   2519240.
  
 Copyright (c) 1988-2017, Gaussian, Inc.  All Rights Reserved.
  
 This is part of the Gaussian(R) 16 program.  It is based on
 the Gaussian(R) 09 system (copyright 2009, Gaussian, Inc.),
 the Gaussian(R) 03 system (copyright 2003, Gaussian, Inc.),
 the Gaussian(R) 98 system (copyright 1998, Gaussian, Inc.),
 the Gaussian(R) 94 system (copyright 1995, Gaussian, Inc.),
 the Gaussian 92(TM) system (copyright 1992, Gaussian, Inc.),
 the Gaussian 90(TM) system (copyright 1990, Gaussian, Inc.),
 the Gaussian 88(TM) system (copyright 1988, Gaussian, Inc.),
 the Gaussian 86(TM) system (copyright 1986, Carnegie Mellon
 University), and the Gaussian 82(TM) system (copyright 1983,
 Carnegie Mellon University). Gaussian is a federally registered
 trademark of Gaussian, Inc.
  
 This software contains proprietary and confidential information,
 including trade secrets, belonging to Gaussian, Inc.
  
 This software is provided under written license and may be
 used, copied, transmitted, or stored only in accord with that
 written license.
  
 The following legend is applicable only to US Government
 contracts under FAR:
  
                    RESTRICTED RIGHTS LEGEND
  
 Use, reproduction and disclosure by the US Government is
 subject to restrictions as set forth in subparagraphs (a)
 and (c) of the Commercial Computer Software - Restricted
 Rights clause in FAR 52.227-19.
  
 Gaussian, Inc.
 340 Quinnipiac St., Bldg. 40, Wallingford CT 06492
  
  
 ---------------------------------------------------------------
 Warning -- This program may not be used in any manner that
 competes with the business of Gaussian, Inc. or will provide
 assistance to any competitor of Gaussian, Inc.  The licensee
 of this program is prohibited from giving any competitor of
 Gaussian, Inc. access to this program.  By using this program,
 the user acknowledges that Gaussian, Inc. is engaged in the
 business of creating and licensing software in the field of
 computational chemistry and represents and warrants to the
 licensee that it is not a competitor of Gaussian, Inc. and that
 it will not use this program in any manner prohibited above.
 ---------------------------------------------------------------
  

 Cite this work as:
 Gaussian 16, Revision B.01,
 M. J. Frisch, G. W. Trucks, H. B. Schlegel, G. E. Scuseria, 
 M. A. Robb, J. R. Cheeseman, G. Scalmani, V. Barone, 
 G. A. Petersson, H. Nakatsuji, X. Li, M. Caricato, A. V. Marenich, 
 J. Bloino, B. G. Janesko, R. Gomperts, B. Mennucci, H. P. Hratchian, 
 J. V. Ortiz, A. F. Izmaylov, J. L. Sonnenberg, D. Williams-Young, 
 F. Ding, F. Lipparini, F. Egidi, J. Goings, B. Peng, A. Petrone, 
 T. Henderson, D. Ranasinghe, V. G. Zakrzewski, J. Gao, N. Rega, 
 G. Zheng, W. Liang, M. Hada, M. Ehara, K. Toyota, R. Fukuda, 
 J. Hasegawa, M. Ishida, T. Nakajima, Y. Honda, O. Kitao, H. Nakai, 
 T. Vreven, K. Throssell, J. A. Montgomery, Jr., J. E. Peralta, 
 F. Ogliaro, M. J. Bearpark, J. J. Heyd, E. N. Brothers, K. N. Kudin, 
 V. N. Staroverov, T. A. Keith, R. Kobayashi, J. Normand, 
 K. Raghavachari, A. P. Rendell, J. C. Burant, S. S. Iyengar, 
 J. Tomasi, M. Cossi, J. M. Millam, M. Klene, C. Adamo, R. Cammi, 
 J. W. Ochterski, R. L. Martin, K. Morokuma, O. Farkas, 
 J. B. Foresman, and D. J. Fox, Gaussian, Inc., Wallingford CT, 2016.
 
 ******************************************
 Gaussian 16:  ES64L-G16RevB.01 20-Dec-2017
                 7-Oct-2025 
 ******************************************
 %nprocs=16
 Will use up to   16 processors via shared memory.
 %mem=40GB
 %chk=MEOC0014.chk
 ----------------------------------------------------------------------
 # opt freq=noraman M08HX/6-311++G** scf=xqc Empiricaldispersion=pfd In
 t(Grid=ultraFine)
 ----------------------------------------------------------------------
 1/18=20,19=15,26=4,38=1/1,3;
 2/9=110,12=2,17=6,18=5,40=1/2;
 3/5=4,6=6,7=1111,11=2,25=1,30=1,71=1,74=-74,75=-5,124=11/1,2,3;
 4//1;
 5/5=2,8=3,13=1,38=5/2,8;
 6/7=2,8=2,9=2,10=2,28=1/1;
 7//1,2,3,16;
 1/18=20,19=15,26=4/3(2);
 2/9=110/2;
 99//99;
 2/9=110/2;
 3/5=4,6=6,7=1111,11=2,25=1,30=1,71=1,74=-74,75=-5,124=11/1,2,3;
 4/5=5,16=3,69=1/1;
 5/5=2,8=3,13=1,38=5/2,8;
 7//1,2,3,16;
 1/18=20,19=15,26=4/3(-5);
 2/9=110/2;
 6/7=2,8=2,9=2,10=2,19=2,28=1/1;
 99/9=1/99;
 --------
 MEOC0014
 --------
 Symbolic Z-matrix:
 Charge =  0 Multiplicity = 1
 O                    -9.2356   -1.2418   -0.4193 
 C                    -10.0581  -2.3237    0.092 
 C                    -7.9584   -1.2008   -0.0087 
 C                    -7.0445   -0.1067   -0.4974 
 C                    -5.6553   -0.2903    0.1169 
 C                    -4.7274    0.8205   -0.3792 
 C                    -3.3382    0.6369    0.235 
 C                    -2.4104    1.7477   -0.2611 
 C                    -1.0212    1.5642    0.3532 
 C                    -0.0933    2.6749   -0.143 
 C                     1.275     2.4941    0.462 
 C                     2.3283    2.414    -0.3126 
 C                     3.6966    2.2332    0.2924 
 C                     4.3639    0.9978   -0.3155 
 C                     5.7531    0.8143    0.2988 
 C                     6.4203   -0.4211   -0.3091 
 C                     7.8095   -0.6047    0.3052 
 C                     8.4768   -1.8401   -0.3027 
 C                     9.866    -2.0236    0.3116 
 C                     10.5332  -3.259    -0.2963 
 O                    -7.5414   -2.0412    0.7528 
 H                    -9.625    -3.2796   -0.2024 
 H                    -10.1018  -2.2641    1.1794 
 H                    -11.0648  -2.2394   -0.3173 
 H                    -6.9704   -0.1534   -1.5838 
 H                    -7.4472    0.8621   -0.202 
 H                    -5.7294   -0.2436    1.2034 
 H                    -5.2525   -1.2591   -0.1785 
 H                    -4.6533    0.7738   -1.4657 
 H                    -5.1302    1.7893   -0.0838 
 H                    -3.4123    0.6837    1.3215 
 H                    -2.9355   -0.3319   -0.0604 
 H                    -2.3363    1.701    -1.3476 
 H                    -2.8131    2.7165    0.0343 
 H                    -1.0953    1.6109    1.4396 
 H                    -0.6184    0.5953    0.0578 
 H                    -0.0193    2.6282   -1.2295 
 H                    -0.4961    3.6438    0.1524 
 H                     1.3872    2.4306    1.5343 
 H                     2.2161    2.4776   -1.3849 
 H                     4.3048    3.1137    0.085 
 H                     3.6028    2.1021    1.3704 
 H                     3.7557    0.1174   -0.1081 
 H                     4.4577    1.129    -1.3935 
 H                     6.3613    1.6948    0.0915 
 H                     5.6592    0.6832    1.3768 
 H                     5.8121   -1.3016   -0.1017 
 H                     6.5142   -0.29     -1.3871 
 H                     8.4177    0.2758    0.0979 
 H                     7.7157   -0.7358    1.3832 
 H                     7.8686   -2.7205   -0.0953 
 H                     8.5706   -1.7089   -1.3807 
 H                     10.4741  -1.1432    0.1043 
 H                     9.7721   -2.1547    1.3896 
 H                     9.925    -4.1395   -0.0889 
 H                     10.627   -3.1279   -1.3743 
 H                     11.5229  -3.3898    0.1414 
 

 GradGradGradGradGradGradGradGradGradGradGradGradGradGradGradGradGradGrad
 Berny optimization.
 Initialization pass.
                           ----------------------------
                           !    Initial Parameters    !
                           ! (Angstroms and Degrees)  !
 --------------------------                            --------------------------
 ! Name  Definition              Value          Derivative Info.                !
 --------------------------------------------------------------------------------
 ! R1    R(1,2)                  1.452          estimate D2E/DX2                !
 ! R2    R(1,3)                  1.3422         estimate D2E/DX2                !
 ! R3    R(2,22)                 1.09           estimate D2E/DX2                !
 ! R4    R(2,23)                 1.0899         estimate D2E/DX2                !
 ! R5    R(2,24)                 1.09           estimate D2E/DX2                !
 ! R6    R(3,4)                  1.507          estimate D2E/DX2                !
 ! R7    R(3,21)                 1.2083         estimate D2E/DX2                !
 ! R8    R(4,5)                  1.53           estimate D2E/DX2                !
 ! R9    R(4,25)                 1.0899         estimate D2E/DX2                !
 ! R10   R(4,26)                 1.09           estimate D2E/DX2                !
 ! R11   R(5,6)                  1.53           estimate D2E/DX2                !
 ! R12   R(5,27)                 1.09           estimate D2E/DX2                !
 ! R13   R(5,28)                 1.09           estimate D2E/DX2                !
 ! R14   R(6,7)                  1.53           estimate D2E/DX2                !
 ! R15   R(6,29)                 1.09           estimate D2E/DX2                !
 ! R16   R(6,30)                 1.09           estimate D2E/DX2                !
 ! R17   R(7,8)                  1.53           estimate D2E/DX2                !
 ! R18   R(7,31)                 1.09           estimate D2E/DX2                !
 ! R19   R(7,32)                 1.09           estimate D2E/DX2                !
 ! R20   R(8,9)                  1.53           estimate D2E/DX2                !
 ! R21   R(8,33)                 1.09           estimate D2E/DX2                !
 ! R22   R(8,34)                 1.09           estimate D2E/DX2                !
 ! R23   R(9,10)                 1.53           estimate D2E/DX2                !
 ! R24   R(9,35)                 1.0899         estimate D2E/DX2                !
 ! R25   R(9,36)                 1.0901         estimate D2E/DX2                !
 ! R26   R(10,11)                1.507          estimate D2E/DX2                !
 ! R27   R(10,37)                1.09           estimate D2E/DX2                !
 ! R28   R(10,38)                1.0901         estimate D2E/DX2                !
 ! R29   R(11,12)                1.3099         estimate D2E/DX2                !
 ! R30   R(11,39)                1.08           estimate D2E/DX2                !
 ! R31   R(12,13)                1.507          estimate D2E/DX2                !
 ! R32   R(12,40)                1.08           estimate D2E/DX2                !
 ! R33   R(13,14)                1.53           estimate D2E/DX2                !
 ! R34   R(13,41)                1.09           estimate D2E/DX2                !
 ! R35   R(13,42)                1.09           estimate D2E/DX2                !
 ! R36   R(14,15)                1.53           estimate D2E/DX2                !
 ! R37   R(14,43)                1.09           estimate D2E/DX2                !
 ! R38   R(14,44)                1.09           estimate D2E/DX2                !
 ! R39   R(15,16)                1.53           estimate D2E/DX2                !
 ! R40   R(15,45)                1.09           estimate D2E/DX2                !
 ! R41   R(15,46)                1.09           estimate D2E/DX2                !
 ! R42   R(16,17)                1.53           estimate D2E/DX2                !
 ! R43   R(16,47)                1.09           estimate D2E/DX2                !
 ! R44   R(16,48)                1.09           estimate D2E/DX2                !
 ! R45   R(17,18)                1.53           estimate D2E/DX2                !
 ! R46   R(17,49)                1.09           estimate D2E/DX2                !
 ! R47   R(17,50)                1.09           estimate D2E/DX2                !
 ! R48   R(18,19)                1.53           estimate D2E/DX2                !
 ! R49   R(18,51)                1.09           estimate D2E/DX2                !
 ! R50   R(18,52)                1.09           estimate D2E/DX2                !
 ! R51   R(19,20)                1.53           estimate D2E/DX2                !
 ! R52   R(19,53)                1.0899         estimate D2E/DX2                !
 ! R53   R(19,54)                1.09           estimate D2E/DX2                !
 ! R54   R(20,55)                1.09           estimate D2E/DX2                !
 ! R55   R(20,56)                1.09           estimate D2E/DX2                !
 ! R56   R(20,57)                1.09           estimate D2E/DX2                !
 ! A1    A(2,1,3)              117.0037         estimate D2E/DX2                !
 ! A2    A(1,2,22)             109.4667         estimate D2E/DX2                !
 ! A3    A(1,2,23)             109.468          estimate D2E/DX2                !
 ! A4    A(1,2,24)             109.4697         estimate D2E/DX2                !
 ! A5    A(22,2,23)            109.4736         estimate D2E/DX2                !
 ! A6    A(22,2,24)            109.475          estimate D2E/DX2                !
 ! A7    A(23,2,24)            109.4743         estimate D2E/DX2                !
 ! A8    A(1,3,4)              120.0023         estimate D2E/DX2                !
 ! A9    A(1,3,21)             119.9959         estimate D2E/DX2                !
 ! A10   A(4,3,21)             120.0018         estimate D2E/DX2                !
 ! A11   A(3,4,5)              109.4691         estimate D2E/DX2                !
 ! A12   A(3,4,25)             109.4726         estimate D2E/DX2                !
 ! A13   A(3,4,26)             109.473          estimate D2E/DX2                !
 ! A14   A(5,4,25)             109.471          estimate D2E/DX2                !
 ! A15   A(5,4,26)             109.4696         estimate D2E/DX2                !
 ! A16   A(25,4,26)            109.472          estimate D2E/DX2                !
 ! A17   A(4,5,6)              109.4717         estimate D2E/DX2                !
 ! A18   A(4,5,27)             109.4714         estimate D2E/DX2                !
 ! A19   A(4,5,28)             109.474          estimate D2E/DX2                !
 ! A20   A(6,5,27)             109.4702         estimate D2E/DX2                !
 ! A21   A(6,5,28)             109.4687         estimate D2E/DX2                !
 ! A22   A(27,5,28)            109.4714         estimate D2E/DX2                !
 ! A23   A(5,6,7)              109.4735         estimate D2E/DX2                !
 ! A24   A(5,6,29)             109.4702         estimate D2E/DX2                !
 ! A25   A(5,6,30)             109.4687         estimate D2E/DX2                !
 ! A26   A(7,6,29)             109.468          estimate D2E/DX2                !
 ! A27   A(7,6,30)             109.4756         estimate D2E/DX2                !
 ! A28   A(29,6,30)            109.4714         estimate D2E/DX2                !
 ! A29   A(6,7,8)              109.4707         estimate D2E/DX2                !
 ! A30   A(6,7,31)             109.4672         estimate D2E/DX2                !
 ! A31   A(6,7,32)             109.4712         estimate D2E/DX2                !
 ! A32   A(8,7,31)             109.4666         estimate D2E/DX2                !
 ! A33   A(8,7,32)             109.475          estimate D2E/DX2                !
 ! A34   A(31,7,32)            109.4766         estimate D2E/DX2                !
 ! A35   A(7,8,9)              109.4719         estimate D2E/DX2                !
 ! A36   A(7,8,33)             109.4707         estimate D2E/DX2                !
 ! A37   A(7,8,34)             109.475          estimate D2E/DX2                !
 ! A38   A(9,8,33)             109.4717         estimate D2E/DX2                !
 ! A39   A(9,8,34)             109.4662         estimate D2E/DX2                !
 ! A40   A(33,8,34)            109.4717         estimate D2E/DX2                !
 ! A41   A(8,9,10)             109.4741         estimate D2E/DX2                !
 ! A42   A(8,9,35)             109.4713         estimate D2E/DX2                !
 ! A43   A(8,9,36)             109.4696         estimate D2E/DX2                !
 ! A44   A(10,9,35)            109.4749         estimate D2E/DX2                !
 ! A45   A(10,9,36)            109.467          estimate D2E/DX2                !
 ! A46   A(35,9,36)            109.4703         estimate D2E/DX2                !
 ! A47   A(9,10,11)            109.4733         estimate D2E/DX2                !
 ! A48   A(9,10,37)            109.4716         estimate D2E/DX2                !
 ! A49   A(9,10,38)            109.467          estimate D2E/DX2                !
 ! A50   A(11,10,37)           109.4747         estimate D2E/DX2                !
 ! A51   A(11,10,38)           109.4726         estimate D2E/DX2                !
 ! A52   A(37,10,38)           109.468          estimate D2E/DX2                !
 ! A53   A(10,11,12)           120.0028         estimate D2E/DX2                !
 ! A54   A(10,11,39)           119.9986         estimate D2E/DX2                !
 ! A55   A(12,11,39)           119.9987         estimate D2E/DX2                !
 ! A56   A(11,12,13)           120.0028         estimate D2E/DX2                !
 ! A57   A(11,12,40)           119.9981         estimate D2E/DX2                !
 ! A58   A(13,12,40)           119.9991         estimate D2E/DX2                !
 ! A59   A(12,13,14)           109.473          estimate D2E/DX2                !
 ! A60   A(12,13,41)           109.4702         estimate D2E/DX2                !
 ! A61   A(12,13,42)           109.472          estimate D2E/DX2                !
 ! A62   A(14,13,41)           109.4675         estimate D2E/DX2                !
 ! A63   A(14,13,42)           109.4726         estimate D2E/DX2                !
 ! A64   A(41,13,42)           109.472          estimate D2E/DX2                !
 ! A65   A(13,14,15)           109.4699         estimate D2E/DX2                !
 ! A66   A(13,14,43)           109.4645         estimate D2E/DX2                !
 ! A67   A(13,14,44)           109.4679         estimate D2E/DX2                !
 ! A68   A(15,14,43)           109.4737         estimate D2E/DX2                !
 ! A69   A(15,14,44)           109.4742         estimate D2E/DX2                !
 ! A70   A(43,14,44)           109.4771         estimate D2E/DX2                !
 ! A71   A(14,15,16)           109.4669         estimate D2E/DX2                !
 ! A72   A(14,15,45)           109.4741         estimate D2E/DX2                !
 ! A73   A(14,15,46)           109.4686         estimate D2E/DX2                !
 ! A74   A(16,15,45)           109.4729         estimate D2E/DX2                !
 ! A75   A(16,15,46)           109.4751         estimate D2E/DX2                !
 ! A76   A(45,15,46)           109.4698         estimate D2E/DX2                !
 ! A77   A(15,16,17)           109.4699         estimate D2E/DX2                !
 ! A78   A(15,16,47)           109.4703         estimate D2E/DX2                !
 ! A79   A(15,16,48)           109.4751         estimate D2E/DX2                !
 ! A80   A(17,16,47)           109.4682         estimate D2E/DX2                !
 ! A81   A(17,16,48)           109.4689         estimate D2E/DX2                !
 ! A82   A(47,16,48)           109.4749         estimate D2E/DX2                !
 ! A83   A(16,17,18)           109.473          estimate D2E/DX2                !
 ! A84   A(16,17,49)           109.4707         estimate D2E/DX2                !
 ! A85   A(16,17,50)           109.4741         estimate D2E/DX2                !
 ! A86   A(18,17,49)           109.4701         estimate D2E/DX2                !
 ! A87   A(18,17,50)           109.4726         estimate D2E/DX2                !
 ! A88   A(49,17,50)           109.4668         estimate D2E/DX2                !
 ! A89   A(17,18,19)           109.4699         estimate D2E/DX2                !
 ! A90   A(17,18,51)           109.4645         estimate D2E/DX2                !
 ! A91   A(17,18,52)           109.4679         estimate D2E/DX2                !
 ! A92   A(19,18,51)           109.4737         estimate D2E/DX2                !
 ! A93   A(19,18,52)           109.4742         estimate D2E/DX2                !
 ! A94   A(51,18,52)           109.4771         estimate D2E/DX2                !
 ! A95   A(18,19,20)           109.4669         estimate D2E/DX2                !
 ! A96   A(18,19,53)           109.4723         estimate D2E/DX2                !
 ! A97   A(18,19,54)           109.4686         estimate D2E/DX2                !
 ! A98   A(20,19,53)           109.4733         estimate D2E/DX2                !
 ! A99   A(20,19,54)           109.4751         estimate D2E/DX2                !
 ! A100  A(53,19,54)           109.4711         estimate D2E/DX2                !
 ! A101  A(19,20,55)           109.4703         estimate D2E/DX2                !
 ! A102  A(19,20,56)           109.4728         estimate D2E/DX2                !
 ! A103  A(19,20,57)           109.4682         estimate D2E/DX2                !
 ! A104  A(55,20,56)           109.472          estimate D2E/DX2                !
 ! A105  A(55,20,57)           109.4672         estimate D2E/DX2                !
 ! A106  A(56,20,57)           109.4769         estimate D2E/DX2                !
 ! D1    D(3,1,2,22)           -60.0009         estimate D2E/DX2                !
 ! D2    D(3,1,2,23)            59.9973         estimate D2E/DX2                !
 ! D3    D(3,1,2,24)           179.9981         estimate D2E/DX2                !
 ! D4    D(2,1,3,4)           -179.9991         estimate D2E/DX2                !
 ! D5    D(2,1,3,21)             0.0015         estimate D2E/DX2                !
 ! D6    D(1,3,4,5)           -179.9997         estimate D2E/DX2                !
 ! D7    D(1,3,4,25)           -60.0004         estimate D2E/DX2                !
 ! D8    D(1,3,4,26)            60.0025         estimate D2E/DX2                !
 ! D9    D(21,3,4,5)            -0.0004         estimate D2E/DX2                !
 ! D10   D(21,3,4,25)          119.9989         estimate D2E/DX2                !
 ! D11   D(21,3,4,26)         -119.9981         estimate D2E/DX2                !
 ! D12   D(3,4,5,6)           -179.9987         estimate D2E/DX2                !
 ! D13   D(3,4,5,27)           -59.9996         estimate D2E/DX2                !
 ! D14   D(3,4,5,28)            60.0024         estimate D2E/DX2                !
 ! D15   D(25,4,5,6)            60.001          estimate D2E/DX2                !
 ! D16   D(25,4,5,27)         -179.9998         estimate D2E/DX2                !
 ! D17   D(25,4,5,28)          -59.9978         estimate D2E/DX2                !
 ! D18   D(26,4,5,6)           -59.9988         estimate D2E/DX2                !
 ! D19   D(26,4,5,27)           60.0003         estimate D2E/DX2                !
 ! D20   D(26,4,5,28)         -179.9977         estimate D2E/DX2                !
 ! D21   D(4,5,6,7)           -179.9969         estimate D2E/DX2                !
 ! D22   D(4,5,6,29)           -60.0001         estimate D2E/DX2                !
 ! D23   D(4,5,6,30)            59.9979         estimate D2E/DX2                !
 ! D24   D(27,5,6,7)            60.0032         estimate D2E/DX2                !
 ! D25   D(27,5,6,29)          180.0            estimate D2E/DX2                !
 ! D26   D(27,5,6,30)          -60.002          estimate D2E/DX2                !
 ! D27   D(28,5,6,7)           -59.9948         estimate D2E/DX2                !
 ! D28   D(28,5,6,29)           60.002          estimate D2E/DX2                !
 ! D29   D(28,5,6,30)          180.0            estimate D2E/DX2                !
 ! D30   D(5,6,7,8)           -179.9989         estimate D2E/DX2                !
 ! D31   D(5,6,7,31)           -60.0073         estimate D2E/DX2                !
 ! D32   D(5,6,7,32)            59.9967         estimate D2E/DX2                !
 ! D33   D(29,6,7,8)            60.0029         estimate D2E/DX2                !
 ! D34   D(29,6,7,31)          179.9945         estimate D2E/DX2                !
 ! D35   D(29,6,7,32)          -60.0014         estimate D2E/DX2                !
 ! D36   D(30,6,7,8)           -59.998          estimate D2E/DX2                !
 ! D37   D(30,6,7,31)           59.9936         estimate D2E/DX2                !
 ! D38   D(30,6,7,32)          179.9977         estimate D2E/DX2                !
 ! D39   D(6,7,8,9)            179.9947         estimate D2E/DX2                !
 ! D40   D(6,7,8,33)           -60.0046         estimate D2E/DX2                !
 ! D41   D(6,7,8,34)            59.998          estimate D2E/DX2                !
 ! D42   D(31,7,8,9)            60.0027         estimate D2E/DX2                !
 ! D43   D(31,7,8,33)         -179.9966         estimate D2E/DX2                !
 ! D44   D(31,7,8,34)          -59.9939         estimate D2E/DX2                !
 ! D45   D(32,7,8,9)           -60.0034         estimate D2E/DX2                !
 ! D46   D(32,7,8,33)           59.9974         estimate D2E/DX2                !
 ! D47   D(32,7,8,34)          180.0            estimate D2E/DX2                !
 ! D48   D(7,8,9,10)           179.9936         estimate D2E/DX2                !
 ! D49   D(7,8,9,35)           -60.0            estimate D2E/DX2                !
 ! D50   D(7,8,9,36)            59.9979         estimate D2E/DX2                !
 ! D51   D(33,8,9,10)           59.9934         estimate D2E/DX2                !
 ! D52   D(33,8,9,35)          179.9998         estimate D2E/DX2                !
 ! D53   D(33,8,9,36)          -60.0022         estimate D2E/DX2                !
 ! D54   D(34,8,9,10)          -60.0044         estimate D2E/DX2                !
 ! D55   D(34,8,9,35)           60.002          estimate D2E/DX2                !
 ! D56   D(34,8,9,36)          180.0            estimate D2E/DX2                !
 ! D57   D(8,9,10,11)         -179.9968         estimate D2E/DX2                !
 ! D58   D(8,9,10,37)          -59.991          estimate D2E/DX2                !
 ! D59   D(8,9,10,38)           60.0028         estimate D2E/DX2                !
 ! D60   D(35,9,10,11)          59.999          estimate D2E/DX2                !
 ! D61   D(35,9,10,37)        -179.9952         estimate D2E/DX2                !
 ! D62   D(35,9,10,38)         -60.0014         estimate D2E/DX2                !
 ! D63   D(36,9,10,11)         -59.9995         estimate D2E/DX2                !
 ! D64   D(36,9,10,37)          60.0062         estimate D2E/DX2                !
 ! D65   D(36,9,10,38)         180.0            estimate D2E/DX2                !
 ! D66   D(9,10,11,12)         125.0047         estimate D2E/DX2                !
 ! D67   D(9,10,11,39)         -54.9976         estimate D2E/DX2                !
 ! D68   D(37,10,11,12)          5.0007         estimate D2E/DX2                !
 ! D69   D(37,10,11,39)       -175.0015         estimate D2E/DX2                !
 ! D70   D(38,10,11,12)       -114.9983         estimate D2E/DX2                !
 ! D71   D(38,10,11,39)         64.9994         estimate D2E/DX2                !
 ! D72   D(10,11,12,13)        180.0            estimate D2E/DX2                !
 ! D73   D(10,11,12,40)          0.0038         estimate D2E/DX2                !
 ! D74   D(39,11,12,13)          0.0023         estimate D2E/DX2                !
 ! D75   D(39,11,12,40)       -179.9939         estimate D2E/DX2                !
 ! D76   D(11,12,13,14)        125.0008         estimate D2E/DX2                !
 ! D77   D(11,12,13,41)       -115.0032         estimate D2E/DX2                !
 ! D78   D(11,12,13,42)          4.9976         estimate D2E/DX2                !
 ! D79   D(40,12,13,14)        -55.003          estimate D2E/DX2                !
 ! D80   D(40,12,13,41)         64.993          estimate D2E/DX2                !
 ! D81   D(40,12,13,42)       -175.0063         estimate D2E/DX2                !
 ! D82   D(12,13,14,15)       -179.9997         estimate D2E/DX2                !
 ! D83   D(12,13,14,43)        -60.0016         estimate D2E/DX2                !
 ! D84   D(12,13,14,44)         59.9994         estimate D2E/DX2                !
 ! D85   D(41,13,14,15)         60.0027         estimate D2E/DX2                !
 ! D86   D(41,13,14,43)       -179.9992         estimate D2E/DX2                !
 ! D87   D(41,13,14,44)        -59.9982         estimate D2E/DX2                !
 ! D88   D(42,13,14,15)        -59.9968         estimate D2E/DX2                !
 ! D89   D(42,13,14,43)         60.0013         estimate D2E/DX2                !
 ! D90   D(42,13,14,44)       -179.9977         estimate D2E/DX2                !
 ! D91   D(13,14,15,16)        179.9984         estimate D2E/DX2                !
 ! D92   D(13,14,15,45)        -60.0004         estimate D2E/DX2                !
 ! D93   D(13,14,15,46)         59.9979         estimate D2E/DX2                !
 ! D94   D(43,14,15,16)         60.0059         estimate D2E/DX2                !
 ! D95   D(43,14,15,45)       -179.9929         estimate D2E/DX2                !
 ! D96   D(43,14,15,46)        -59.9946         estimate D2E/DX2                !
 ! D97   D(44,14,15,16)        -60.0046         estimate D2E/DX2                !
 ! D98   D(44,14,15,45)         59.9965         estimate D2E/DX2                !
 ! D99   D(44,14,15,46)        179.9949         estimate D2E/DX2                !
 ! D100  D(14,15,16,17)       -179.9977         estimate D2E/DX2                !
 ! D101  D(14,15,16,47)        -60.0028         estimate D2E/DX2                !
 ! D102  D(14,15,16,48)         60.0035         estimate D2E/DX2                !
 ! D103  D(45,15,16,17)         60.0004         estimate D2E/DX2                !
 ! D104  D(45,15,16,47)        179.9953         estimate D2E/DX2                !
 ! D105  D(45,15,16,48)        -59.9984         estimate D2E/DX2                !
 ! D106  D(46,15,16,17)        -60.0013         estimate D2E/DX2                !
 ! D107  D(46,15,16,47)         59.9937         estimate D2E/DX2                !
 ! D108  D(46,15,16,48)        180.0            estimate D2E/DX2                !
 ! D109  D(15,16,17,18)       -179.9984         estimate D2E/DX2                !
 ! D110  D(15,16,17,49)        -59.999          estimate D2E/DX2                !
 ! D111  D(15,16,17,50)         59.997          estimate D2E/DX2                !
 ! D112  D(47,16,17,18)         60.0053         estimate D2E/DX2                !
 ! D113  D(47,16,17,49)       -179.9953         estimate D2E/DX2                !
 ! D114  D(47,16,17,50)        -59.9992         estimate D2E/DX2                !
 ! D115  D(48,16,17,18)        -59.9959         estimate D2E/DX2                !
 ! D116  D(48,16,17,49)         60.0035         estimate D2E/DX2                !
 ! D117  D(48,16,17,50)        179.9996         estimate D2E/DX2                !
 ! D118  D(16,17,18,19)        179.9977         estimate D2E/DX2                !
 ! D119  D(16,17,18,51)        -60.0041         estimate D2E/DX2                !
 ! D120  D(16,17,18,52)         59.9969         estimate D2E/DX2                !
 ! D121  D(49,17,18,19)         59.9979         estimate D2E/DX2                !
 ! D122  D(49,17,18,51)        179.9961         estimate D2E/DX2                !
 ! D123  D(49,17,18,52)        -60.0029         estimate D2E/DX2                !
 ! D124  D(50,17,18,19)        -59.9968         estimate D2E/DX2                !
 ! D125  D(50,17,18,51)         60.0013         estimate D2E/DX2                !
 ! D126  D(50,17,18,52)       -179.9977         estimate D2E/DX2                !
 ! D127  D(17,18,19,20)        179.9984         estimate D2E/DX2                !
 ! D128  D(17,18,19,53)        -60.001          estimate D2E/DX2                !
 ! D129  D(17,18,19,54)         59.9979         estimate D2E/DX2                !
 ! D130  D(51,18,19,20)         60.0059         estimate D2E/DX2                !
 ! D131  D(51,18,19,53)       -179.9935         estimate D2E/DX2                !
 ! D132  D(51,18,19,54)        -59.9946         estimate D2E/DX2                !
 ! D133  D(52,18,19,20)        -60.0046         estimate D2E/DX2                !
 ! D134  D(52,18,19,53)         59.996          estimate D2E/DX2                !
 ! D135  D(52,18,19,54)        179.9949         estimate D2E/DX2                !
 ! D136  D(18,19,20,55)        -60.0028         estimate D2E/DX2                !
 ! D137  D(18,19,20,56)         59.9985         estimate D2E/DX2                !
 ! D138  D(18,19,20,57)       -179.9955         estimate D2E/DX2                !
 ! D139  D(53,19,20,55)        179.9972         estimate D2E/DX2                !
 ! D140  D(53,19,20,56)        -60.0014         estimate D2E/DX2                !
 ! D141  D(53,19,20,57)         60.0046         estimate D2E/DX2                !
 ! D142  D(54,19,20,55)         59.9937         estimate D2E/DX2                !
 ! D143  D(54,19,20,56)        179.995          estimate D2E/DX2                !
 ! D144  D(54,19,20,57)        -59.999          estimate D2E/DX2                !
 --------------------------------------------------------------------------------
 Trust Radius=3.00D-01 FncErr=1.00D-07 GrdErr=1.00D-06 EigMax=2.50D+02 EigMin=1.00D-04
 Number of steps in this run=    316 maximum allowed number of steps=    342.
 GradGradGradGradGradGradGradGradGradGradGradGradGradGradGradGradGradGrad

 Stoichiometry    C19H36O2
 Framework group  C1[X(C19H36O2)]
 Deg. of freedom   165
 Full point group                 C1      NOp   1
 Largest Abelian subgroup         C1      NOp   1
 Largest concise Abelian subgroup C1      NOp   1
                         Standard orientation:                         
 ---------------------------------------------------------------------
 Center     Atomic      Atomic             Coordinates (Angstroms)
 Number     Number       Type             X           Y           Z
 ---------------------------------------------------------------------
      1          8           0        9.373411    1.309232   -0.413112
      2          6           0       10.188354    2.395776    0.100435
      3          6           0        8.096505    1.258534   -0.002680
      4          6           0        7.190248    0.159110   -0.493658
      5          6           0        5.799775    0.331815    0.120921
      6          6           0        4.879634   -0.784391   -0.377492
      7          6           0        3.489161   -0.611685    0.236988
      8          6           0        2.569120   -1.727890   -0.261425
      9          6           0        1.178648   -1.555284    0.353154
     10          6           0        0.258506   -2.671390   -0.145359
     11          6           0       -1.111047   -2.501320    0.459916
     12          6           0       -2.164838   -2.426963   -0.314589
     13          6           0       -3.534391   -2.256894    0.290686
     14          6           0       -4.210219   -1.024925   -0.314752
     15          6           0       -5.600692   -0.852319    0.299827
     16          6           0       -6.276420    0.379650   -0.305610
     17          6           0       -7.666893    0.552355    0.308969
     18          6           0       -8.342721    1.784324   -0.296469
     19          6           0       -9.733194    1.956929    0.318110
     20          6           0      -10.408922    3.188899   -0.287327
     21          8           0        7.673642    2.094473    0.760495
     22          1           0        9.748644    3.349242   -0.192054
     23          1           0       10.232410    2.334275    1.187715
     24          1           0       11.195636    2.319297   -0.308968
     25          1           0        7.115882    0.207498   -1.579966
     26          1           0        7.599648   -0.807469   -0.200197
     27          1           0        5.874141    0.283427    1.207329
     28          1           0        5.390274    1.298393   -0.172540
     29          1           0        4.805268   -0.736003   -1.463900
     30          1           0        5.289134   -1.750968   -0.084030
     31          1           0        3.563528   -0.660173    1.323395
     32          1           0        3.079761    0.354894   -0.056474
     33          1           0        2.494754   -1.679502   -1.347833
     34          1           0        2.978520   -2.694468    0.032036
     35          1           0        1.253014   -1.603672    1.439462
     36          1           0        0.769147   -0.588607    0.059693
     37          1           0        0.184241   -2.623001   -1.231767
     38          1           0        0.668007   -3.638068    0.148103
     39          1           0       -1.223741   -2.440776    1.532335
     40          1           0       -2.052143   -2.487608   -1.387009
     41          1           0       -4.136453   -3.141172    0.081461
     42          1           0       -3.441559   -2.127332    1.368956
     43          1           0       -3.608157   -0.140747   -0.105527
     44          1           0       -4.303050   -1.154586   -1.393022
     45          1           0       -6.202754   -1.736598    0.090702
     46          1           0       -5.507760   -0.722758    1.378097
     47          1           0       -5.674358    1.263928   -0.096385
     48          1           0       -6.369352    0.250088   -1.383880
     49          1           0       -8.268955   -0.331923    0.099844
     50          1           0       -7.574061    0.681917    1.387239
     51          1           0       -7.740659    2.668502   -0.087244
     52          1           0       -8.435552    1.654662   -1.374739
     53          1           0      -10.335157    1.072752    0.108985
     54          1           0       -9.640262    2.086491    1.396380
     55          1           0       -9.806860    4.073177   -0.078102
     56          1           0      -10.501754    3.059337   -1.365597
     57          1           0      -11.399529    3.311937    0.150572
 ---------------------------------------------------------------------
 Rotational constants (GHZ):           0.5028425           0.0393132           0.0368210
 Standard basis: 6-311++G(d,p) (5D, 7F)
 There are   735 symmetry adapted cartesian basis functions of A   symmetry.
 There are   714 symmetry adapted basis functions of A   symmetry.
   714 basis functions,  1080 primitive gaussians,   735 cartesian basis functions
    83 alpha electrons       83 beta electrons
       nuclear repulsion energy      1468.7861110422 Hartrees.
 NAtoms=   57 NActive=   57 NUniq=   57 SFac= 1.00D+00 NAtFMM=   60 NAOKFM=F Big=F
 Integral buffers will be    131072 words long.
 Raffenetti 2 integral format.
 Two-electron integral symmetry is turned on.
 R6APFD:  NTU= -4 IXU= 1 FactS= 1.050
 Nuclear repulsion after empirical dispersion term =     1468.7447225350 Hartrees.
 One-electron integrals computed using PRISM.
 NBasis=   714 RedAO= T EigKep=  1.90D-06  NBF=   714
 NBsUse=   713 1.00D-06 EigRej=  8.77D-07 NBFU=   713
 ExpMin= 3.60D-02 ExpMax= 8.59D+03 ExpMxC= 1.30D+03 IAcc=3 IRadAn=         5 AccDes= 0.00D+00
 Harris functional with IExCor= 1009 and IRadAn=       5 diagonalized for initial guess.
 HarFok:  IExCor= 1009 AccDes= 0.00D+00 IRadAn=         5 IDoV= 1 UseB2=F ITyADJ=14
 ICtDFT=  3500011 ScaDFX=  1.000000  1.000000  1.000000  1.000000
 FoFCou: FMM=F IPFlag=           0 FMFlag=      100000 FMFlg1=           0
         NFxFlg=           0 DoJE=T BraDBF=F KetDBF=T FulRan=T
         wScrn=  0.000000 ICntrl=       500 IOpCl=  0 I1Cent=   200000004 NGrid=           0
         NMat0=    1 NMatS0=      1 NMatT0=    0 NMatD0=    1 NMtDS0=    0 NMtDT0=    0
 Petite list used in FoFCou.
 Requested convergence on RMS density matrix=1.00D-08 within  32 cycles.
 Requested convergence on MAX density matrix=1.00D-06.
 Requested convergence on             energy=1.00D-06.
 No special actions if energy rises.
 SCF Done:  E(RM08HX) =  -896.194149662     A.U. after   14 cycles
            NFock= 14  Conv=0.26D-08     -V/T= 2.0047
 QCSCF skips out because SCF is already converged.

 **********************************************************************

            Population analysis using the SCF Density.

 **********************************************************************

 Orbital symmetries:
       Occupied  (A) (A) (A) (A) (A) (A) (A) (A) (A) (A) (A) (A)
                 (A) (A) (A) (A) (A) (A) (A) (A) (A) (A) (A) (A)
                 (A) (A) (A) (A) (A) (A) (A) (A) (A) (A) (A) (A)
                 (A) (A) (A) (A) (A) (A) (A) (A) (A) (A) (A) (A)
                 (A) (A) (A) (A) (A) (A) (A) (A) (A) (A) (A) (A)
                 (A) (A) (A) (A) (A) (A) (A) (A) (A) (A) (A) (A)
                 (A) (A) (A) (A) (A) (A) (A) (A) (A) (A) (A)
       Virtual   (A) (A) (A) (A) (A) (A) (A) (A) (A) (A) (A) (A)
                 (A) (A) (A) (A) (A) (A) (A) (A) (A) (A) (A) (A)
                 (A) (A) (A) (A) (A) (A) (A) (A) (A) (A) (A) (A)
                 (A) (A) (A) (A) (A) (A) (A) (A) (A) (A) (A) (A)
                 (A) (A) (A) (A) (A) (A) (A) (A) (A) (A) (A) (A)
                 (A) (A) (A) (A) (A) (A) (A) (A) (A) (A) (A) (A)
                 (A) (A) (A) (A) (A) (A) (A) (A) (A) (A) (A) (A)
                 (A) (A) (A) (A) (A) (A) (A) (A) (A) (A) (A) (A)
                 (A) (A) (A) (A) (A) (A) (A) (A) (A) (A) (A) (A)
                 (A) (A) (A) (A) (A) (A) (A) (A) (A) (A) (A) (A)
                 (A) (A) (A) (A) (A) (A) (A) (A) (A) (A) (A) (A)
                 (A) (A) (A) (A) (A) (A) (A) (A) (A) (A) (A) (A)
                 (A) (A) (A) (A) (A) (A) (A) (A) (A) (A) (A) (A)
                 (A) (A) (A) (A) (A) (A) (A) (A) (A) (A) (A) (A)
                 (A) (A) (A) (A) (A) (A) (A) (A) (A) (A) (A) (A)
                 (A) (A) (A) (A) (A) (A) (A) (A) (A) (A) (A) (A)
                 (A) (A) (A) (A) (A) (A) (A) (A) (A) (A) (A) (A)
                 (A) (A) (A) (A) (A) (A) (A) (A) (A) (A) (A) (A)
                 (A) (A) (A) (A) (A) (A) (A) (A) (A) (A) (A) (A)
                 (A) (A) (A) (A) (A) (A) (A) (A) (A) (A) (A) (A)
                 (A) (A) (A) (A) (A) (A) (A) (A) (A) (A) (A) (A)
                 (A) (A) (A) (A) (A) (A) (A) (A) (A) (A) (A) (A)
                 (A) (A) (A) (A) (A) (A) (A) (A) (A) (A) (A) (A)
                 (A) (A) (A) (A) (A) (A) (A) (A) (A) (A) (A) (A)
                 (A) (A) (A) (A) (A) (A) (A) (A) (A) (A) (A) (A)
                 (A) (A) (A) (A) (A) (A) (A) (A) (A) (A) (A) (A)
                 (A) (A) (A) (A) (A) (A) (A) (A) (A) (A) (A) (A)
                 (A) (A) (A) (A) (A) (A) (A) (A) (A) (A) (A) (A)
                 (A) (A) (A) (A) (A) (A) (A) (A) (A) (A) (A) (A)
                 (A) (A) (A) (A) (A) (A) (A) (A) (A) (A) (A) (A)
                 (A) (A) (A) (A) (A) (A) (A) (A) (A) (A) (A) (A)
                 (A) (A) (A) (A) (A) (A) (A) (A) (A) (A) (A) (A)
                 (A) (A) (A) (A) (A) (A) (A) (A) (A) (A) (A) (A)
                 (A) (A) (A) (A) (A) (A) (A) (A) (A) (A) (A) (A)
                 (A) (A) (A) (A) (A) (A) (A) (A) (A) (A) (A) (A)
                 (A) (A) (A) (A) (A) (A) (A) (A) (A) (A) (A) (A)
                 (A) (A) (A) (A) (A) (A) (A) (A) (A) (A) (A) (A)
                 (A) (A) (A) (A) (A) (A) (A) (A) (A) (A) (A) (A)
                 (A) (A) (A) (A) (A) (A) (A) (A) (A) (A) (A) (A)
                 (A) (A) (A) (A) (A) (A) (A) (A) (A) (A) (A) (A)
                 (A) (A) (A) (A) (A) (A) (A) (A) (A) (A) (A) (A)
                 (A) (A) (A) (A) (A) (A) (A) (A) (A) (A) (A) (A)
                 (A) (A) (A) (A) (A) (A) (A) (A) (A) (A) (A) (A)
                 (A) (A) (A) (A) (A) (A) (A) (A) (A) (A) (A) (A)
                 (A) (A) (A) (A) (A) (A) (A) (A) (A) (A) (A) (A)
                 (A) (A) (A) (A) (A) (A) (A) (A) (A) (A) (A) (A)
                 (A) (A) (A) (A) (A) (A) (A) (A) (A) (A) (A) (A)
                 (A) (A) (A) (A) (A) (A) (A) (A) (A) (A) (A) (A)
                 (A) (A) (A) (A) (A) (A) (A) (A) (A) (A) (A) (A)
                 (A) (A) (A) (A) (A) (A) (A) (A) (A) (A) (A) (A)
                 (A) (A) (A) (A) (A) (A) (A) (A) (A) (A) (A) (A)
                 (A) (A) (A) (A) (A) (A) (A) (A) (A) (A) (A) (A)
                 (A) (A) (A) (A) (A) (A)
 The electronic state is 1-A.
 Alpha  occ. eigenvalues --  -19.65634 -19.59113 -10.66146 -10.58488 -10.54283
 Alpha  occ. eigenvalues --  -10.52216 -10.51957 -10.51820 -10.51738 -10.51675
 Alpha  occ. eigenvalues --  -10.51606 -10.51568 -10.51498 -10.51475 -10.51452
 Alpha  occ. eigenvalues --  -10.51368 -10.51351 -10.51328 -10.51304 -10.51272
 Alpha  occ. eigenvalues --  -10.50727  -1.23418  -1.13168  -0.93299  -0.92570
 Alpha  occ. eigenvalues --   -0.91650  -0.90097  -0.88379  -0.86123  -0.84108
 Alpha  occ. eigenvalues --   -0.82194  -0.79629  -0.76798  -0.73227  -0.70408
 Alpha  occ. eigenvalues --   -0.67604  -0.66756  -0.66423  -0.66224  -0.65609
 Alpha  occ. eigenvalues --   -0.64352  -0.63157  -0.58903  -0.58219  -0.56739
 Alpha  occ. eigenvalues --   -0.56437  -0.56007  -0.54645  -0.54206  -0.52222
 Alpha  occ. eigenvalues --   -0.51810  -0.50456  -0.50239  -0.49720  -0.49464
 Alpha  occ. eigenvalues --   -0.48356  -0.48015  -0.46751  -0.46356  -0.45765
 Alpha  occ. eigenvalues --   -0.44591  -0.44446  -0.43494  -0.43113  -0.42566
 Alpha  occ. eigenvalues --   -0.42322  -0.41471  -0.41243  -0.40623  -0.40072
 Alpha  occ. eigenvalues --   -0.39686  -0.39670  -0.39389  -0.39292  -0.39092
 Alpha  occ. eigenvalues --   -0.38957  -0.38892  -0.38852  -0.37518  -0.35632
 Alpha  occ. eigenvalues --   -0.35153  -0.34171  -0.29795
 Alpha virt. eigenvalues --   -0.02954  -0.02646  -0.02083  -0.02040  -0.01736
 Alpha virt. eigenvalues --   -0.01579  -0.01337  -0.01005  -0.00810  -0.00462
 Alpha virt. eigenvalues --    0.00062   0.00201   0.00655   0.01164   0.01285
 Alpha virt. eigenvalues --    0.01571   0.01684   0.01981   0.02303   0.02463
 Alpha virt. eigenvalues --    0.02533   0.02942   0.03326   0.03556   0.03870
 Alpha virt. eigenvalues --    0.03923   0.04056   0.04551   0.04881   0.04992
 Alpha virt. eigenvalues --    0.05587   0.05800   0.05966   0.06375   0.06409
 Alpha virt. eigenvalues --    0.06786   0.07335   0.07537   0.08012   0.08200
 Alpha virt. eigenvalues --    0.08413   0.08612   0.08747   0.09312   0.09537
 Alpha virt. eigenvalues --    0.09866   0.10383   0.10603   0.10680   0.10807
 Alpha virt. eigenvalues --    0.11082   0.11243   0.11443   0.11681   0.11799
 Alpha virt. eigenvalues --    0.11993   0.12301   0.12349   0.12513   0.12801
 Alpha virt. eigenvalues --    0.12896   0.12986   0.13251   0.13338   0.13570
 Alpha virt. eigenvalues --    0.13675   0.13865   0.13942   0.14053   0.14604
 Alpha virt. eigenvalues --    0.14653   0.14859   0.15026   0.15105   0.15438
 Alpha virt. eigenvalues --    0.15653   0.15826   0.16128   0.16314   0.16602
 Alpha virt. eigenvalues --    0.16934   0.16989   0.17205   0.17447   0.17626
 Alpha virt. eigenvalues --    0.17728   0.17786   0.18282   0.18592   0.18877
 Alpha virt. eigenvalues --    0.19045   0.19200   0.19437   0.19696   0.19732
 Alpha virt. eigenvalues --    0.19974   0.20437   0.20543   0.20718   0.20896
 Alpha virt. eigenvalues --    0.21515   0.21668   0.21846   0.22094   0.22227
 Alpha virt. eigenvalues --    0.22932   0.23226   0.23772   0.23858   0.24187
 Alpha virt. eigenvalues --    0.24405   0.24792   0.24888   0.24945   0.25241
 Alpha virt. eigenvalues --    0.25694   0.25948   0.26093   0.26344   0.26646
 Alpha virt. eigenvalues --    0.27090   0.27176   0.27447   0.27680   0.28164
 Alpha virt. eigenvalues --    0.28553   0.28935   0.29107   0.29619   0.29804
 Alpha virt. eigenvalues --    0.29826   0.30027   0.30218   0.30616   0.30675
 Alpha virt. eigenvalues --    0.30767   0.31414   0.31606   0.31754   0.31998
 Alpha virt. eigenvalues --    0.32265   0.32524   0.32639   0.32799   0.33060
 Alpha virt. eigenvalues --    0.33173   0.33570   0.33851   0.34391   0.34727
 Alpha virt. eigenvalues --    0.34735   0.34889   0.35235   0.35525   0.36005
 Alpha virt. eigenvalues --    0.36184   0.36427   0.37071   0.37312   0.37990
 Alpha virt. eigenvalues --    0.38242   0.38360   0.38607   0.39072   0.39111
 Alpha virt. eigenvalues --    0.39659   0.40124   0.41054   0.41462   0.41716
 Alpha virt. eigenvalues --    0.42148   0.43391   0.43944   0.44824   0.44944
 Alpha virt. eigenvalues --    0.45554   0.46065   0.46734   0.47044   0.47096
 Alpha virt. eigenvalues --    0.47673   0.48618   0.48845   0.49200   0.49917
 Alpha virt. eigenvalues --    0.50291   0.52251   0.52639   0.53707   0.54993
 Alpha virt. eigenvalues --    0.55418   0.56281   0.56612   0.57228   0.58063
 Alpha virt. eigenvalues --    0.59445   0.60013   0.60022   0.60775   0.61549
 Alpha virt. eigenvalues --    0.61712   0.62685   0.63646   0.64131   0.64840
 Alpha virt. eigenvalues --    0.65444   0.66332   0.66472   0.66610   0.67031
 Alpha virt. eigenvalues --    0.67915   0.67938   0.68142   0.68781   0.69265
 Alpha virt. eigenvalues --    0.69474   0.69948   0.70501   0.70935   0.71192
 Alpha virt. eigenvalues --    0.71295   0.71606   0.71849   0.72462   0.72744
 Alpha virt. eigenvalues --    0.72908   0.73090   0.73455   0.73555   0.73903
 Alpha virt. eigenvalues --    0.74091   0.74625   0.74903   0.75128   0.75414
 Alpha virt. eigenvalues --    0.75874   0.76188   0.76470   0.76720   0.76834
 Alpha virt. eigenvalues --    0.77292   0.77527   0.77820   0.78002   0.78086
 Alpha virt. eigenvalues --    0.78394   0.78873   0.79001   0.79349   0.79703
 Alpha virt. eigenvalues --    0.79857   0.79975   0.80252   0.80454   0.80751
 Alpha virt. eigenvalues --    0.81344   0.81490   0.81990   0.82292   0.82767
 Alpha virt. eigenvalues --    0.83143   0.83518   0.83900   0.85229   0.86704
 Alpha virt. eigenvalues --    0.87033   0.88110   0.90460   0.92048   0.93595
 Alpha virt. eigenvalues --    0.94658   0.95374   0.96466   0.99346   0.99784
 Alpha virt. eigenvalues --    1.00690   1.01207   1.02843   1.03925   1.04774
 Alpha virt. eigenvalues --    1.05543   1.05608   1.06029   1.06353   1.06775
 Alpha virt. eigenvalues --    1.07043   1.07669   1.08400   1.08682   1.09075
 Alpha virt. eigenvalues --    1.09624   1.11727   1.13389   1.16084   1.17107
 Alpha virt. eigenvalues --    1.18044   1.19319   1.21390   1.21680   1.22833
 Alpha virt. eigenvalues --    1.24017   1.24835   1.26963   1.27613   1.28942
 Alpha virt. eigenvalues --    1.29417   1.29512   1.29666   1.30288   1.30559
 Alpha virt. eigenvalues --    1.31340   1.31572   1.31779   1.31979   1.32287
 Alpha virt. eigenvalues --    1.32378   1.34271   1.36300   1.37874   1.39564
 Alpha virt. eigenvalues --    1.41162   1.42859   1.44257   1.47018   1.49239
 Alpha virt. eigenvalues --    1.49409   1.50112   1.51065   1.51521   1.53008
 Alpha virt. eigenvalues --    1.53374   1.54058   1.54079   1.55681   1.55816
 Alpha virt. eigenvalues --    1.56110   1.56650   1.57928   1.59002   1.59721
 Alpha virt. eigenvalues --    1.59744   1.59890   1.60401   1.60979   1.61200
 Alpha virt. eigenvalues --    1.61683   1.62610   1.62804   1.63353   1.63459
 Alpha virt. eigenvalues --    1.63708   1.65191   1.66008   1.66143   1.66426
 Alpha virt. eigenvalues --    1.66568   1.66878   1.66995   1.67415   1.67973
 Alpha virt. eigenvalues --    1.68028   1.68697   1.68796   1.69001   1.70090
 Alpha virt. eigenvalues --    1.70246   1.70474   1.71030   1.71634   1.72022
 Alpha virt. eigenvalues --    1.73057   1.73276   1.73373   1.73794   1.74523
 Alpha virt. eigenvalues --    1.75092   1.75678   1.76295   1.77096   1.77283
 Alpha virt. eigenvalues --    1.77698   1.77893   1.78373   1.78791   1.79559
 Alpha virt. eigenvalues --    1.80983   1.81451   1.82595   1.83295   1.83619
 Alpha virt. eigenvalues --    1.84991   1.86251   1.86713   1.87659   1.88376
 Alpha virt. eigenvalues --    1.89270   1.89890   1.90410   1.90796   1.91016
 Alpha virt. eigenvalues --    1.91567   1.92485   1.93245   1.94361   1.95767
 Alpha virt. eigenvalues --    1.97489   1.97910   1.98942   2.00749   2.03614
 Alpha virt. eigenvalues --    2.04500   2.05325   2.07360   2.07644   2.08362
 Alpha virt. eigenvalues --    2.10313   2.11008   2.11730   2.13959   2.14242
 Alpha virt. eigenvalues --    2.14319   2.15867   2.16478   2.17110   2.17459
 Alpha virt. eigenvalues --    2.18920   2.19875   2.20612   2.21340   2.22098
 Alpha virt. eigenvalues --    2.23374   2.24066   2.24731   2.25182   2.26051
 Alpha virt. eigenvalues --    2.26552   2.26823   2.28527   2.28787   2.29828
 Alpha virt. eigenvalues --    2.30292   2.31258   2.31981   2.33704   2.34908
 Alpha virt. eigenvalues --    2.35382   2.36252   2.37402   2.38040   2.38639
 Alpha virt. eigenvalues --    2.39898   2.40492   2.42587   2.43163   2.43515
 Alpha virt. eigenvalues --    2.44292   2.45109   2.45756   2.45886   2.46905
 Alpha virt. eigenvalues --    2.47233   2.47443   2.47808   2.48900   2.49109
 Alpha virt. eigenvalues --    2.49823   2.50424   2.53610   2.53911   2.54759
 Alpha virt. eigenvalues --    2.55269   2.56124   2.56233   2.56770   2.57437
 Alpha virt. eigenvalues --    2.58026   2.58859   2.59917   2.60484   2.60921
 Alpha virt. eigenvalues --    2.61239   2.61638   2.62031   2.62985   2.63006
 Alpha virt. eigenvalues --    2.63817   2.63905   2.64551   2.64746   2.65382
 Alpha virt. eigenvalues --    2.65913   2.66854   2.67519   2.67674   2.68949
 Alpha virt. eigenvalues --    2.69585   2.69945   2.70553   2.71010   2.71328
 Alpha virt. eigenvalues --    2.71676   2.72179   2.72833   2.73288   2.74520
 Alpha virt. eigenvalues --    2.77107   2.77558   2.78098   2.78630   2.79771
 Alpha virt. eigenvalues --    2.80450   2.81125   2.81335   2.82225   2.83076
 Alpha virt. eigenvalues --    2.84512   2.84781   2.85434   2.86541   2.86709
 Alpha virt. eigenvalues --    2.88174   2.88579   2.89472   2.89913   2.91104
 Alpha virt. eigenvalues --    2.91519   2.92118   2.92889   2.93036   2.93561
 Alpha virt. eigenvalues --    2.94607   2.95118   2.96600   2.97935   2.99948
 Alpha virt. eigenvalues --    3.02093   3.03089   3.08390   3.08730   3.08999
 Alpha virt. eigenvalues --    3.10051   3.10479   3.12270   3.12541   3.14157
 Alpha virt. eigenvalues --    3.15661   3.16713   3.17815   3.18156   3.20080
 Alpha virt. eigenvalues --    3.23276   3.23962   3.27149   3.30153   3.32812
 Alpha virt. eigenvalues --    3.35892   3.42448   3.43532   3.45386   3.49494
 Alpha virt. eigenvalues --    3.50113   3.53712   3.54107   3.68874   3.69803
 Alpha virt. eigenvalues --    3.73319   3.81215   3.83505   3.83777   3.84454
 Alpha virt. eigenvalues --    3.84739   3.85493   3.85724   3.86007   3.86513
 Alpha virt. eigenvalues --    3.86960   3.87215   3.87618   3.89557   3.92008
 Alpha virt. eigenvalues --    3.93548   3.95693   3.96867   4.00094   4.00760
 Alpha virt. eigenvalues --    4.06889   4.13905   4.14082   4.16768   4.17327
 Alpha virt. eigenvalues --    4.18606   4.21137   4.22387   4.26660   4.29402
 Alpha virt. eigenvalues --    4.33194   4.36387   4.38239   4.40648   4.41313
 Alpha virt. eigenvalues --    4.42271   4.43795   4.48870   5.13782   5.18187
 Alpha virt. eigenvalues --    5.41714   5.46403   5.72398   5.98771  23.83077
 Alpha virt. eigenvalues --   23.89710  23.95785  23.95904  23.96427  23.97052
 Alpha virt. eigenvalues --   23.97213  23.97415  23.97842  23.98122  23.98447
 Alpha virt. eigenvalues --   23.98982  23.99701  24.00006  24.00204  24.00685
 Alpha virt. eigenvalues --   24.02270  24.05661  24.43183  49.91724  50.03561
          Condensed to atoms (all electrons):
 Mulliken charges:
               1
     1  O   -0.011834
     2  C   -0.424998
     3  C    0.141067
     4  C   -0.889497
     5  C   -0.354783
     6  C   -0.459891
     7  C   -0.221399
     8  C   -0.382250
     9  C   -0.649174
    10  C   -0.626100
    11  C    0.212693
    12  C    0.263848
    13  C   -0.659527
    14  C   -0.660175
    15  C   -0.361173
    16  C   -0.219953
    17  C   -0.313627
    18  C   -0.452042
    19  C   -0.289190
    20  C   -0.801783
    21  O   -0.202336
    22  H    0.232459
    23  H    0.232568
    24  H    0.213249
    25  H    0.264243
    26  H    0.264580
    27  H    0.238060
    28  H    0.239145
    29  H    0.189611
    30  H    0.186826
    31  H    0.191032
    32  H    0.188559
    33  H    0.177997
    34  H    0.200855
    35  H    0.161023
    36  H    0.196975
    37  H    0.158242
    38  H    0.230626
    39  H    0.291382
    40  H    0.291636
    41  H    0.229085
    42  H    0.159207
    43  H    0.195674
    44  H    0.159812
    45  H    0.200616
    46  H    0.178073
    47  H    0.189366
    48  H    0.190161
    49  H    0.184330
    50  H    0.187675
    51  H    0.181775
    52  H    0.181535
    53  H    0.195524
    54  H    0.195623
    55  H    0.180795
    56  H    0.180558
    57  H    0.223244
 Sum of Mulliken charges =  -0.00000
 Mulliken charges with hydrogens summed into heavy atoms:
               1
     1  O   -0.011834
     2  C    0.253278
     3  C    0.141067
     4  C   -0.360674
     5  C    0.122422
     6  C   -0.083454
     7  C    0.158192
     8  C   -0.003398
     9  C   -0.291176
    10  C   -0.237232
    11  C    0.504075
    12  C    0.555484
    13  C   -0.271235
    14  C   -0.304689
    15  C    0.017516
    16  C    0.159575
    17  C    0.058379
    18  C   -0.088732
    19  C    0.101957
    20  C   -0.217186
    21  O   -0.202336
 Electronic spatial extent (au):  <R**2>=          28075.0494
 Charge=             -0.0000 electrons
 Dipole moment (field-independent basis, Debye):
    X=              0.7244    Y=             -0.8442    Z=             -0.8171  Tot=              1.3802
 Quadrupole moment (field-independent basis, Debye-Ang):
   XX=           -122.3746   YY=           -141.3053   ZZ=           -136.1622
   XY=              0.1663   XZ=             -3.9485   YZ=             -2.5118
 Traceless Quadrupole moment (field-independent basis, Debye-Ang):
   XX=             10.9061   YY=             -8.0246   ZZ=             -2.8815
   XY=              0.1663   XZ=             -3.9485   YZ=             -2.5118
 Octapole moment (field-independent basis, Debye-Ang**2):
  XXX=            361.0551  YYY=             22.1667  ZZZ=              0.3476  XYY=             50.5642
  XXY=             26.8848  XXZ=            -16.2394  XZZ=             16.1815  YZZ=             -1.1685
  YYZ=             -3.9732  XYZ=            -35.2544
 Hexadecapole moment (field-independent basis, Debye-Ang**3):
 XXXX=         -32088.4403 YYYY=          -2917.6664 ZZZZ=           -376.3574 XXXY=           1434.6979
 XXXZ=             92.1802 YYYX=            206.6875 YYYZ=             -8.0730 ZZZX=              7.3343
 ZZZY=              2.8595 XXYY=          -6255.5530 XXZZ=          -5977.9614 YYZZ=           -546.3563
 XXYZ=            -63.2190 YYXZ=            -69.9908 ZZXY=             27.7384
 N-N= 1.468744722535D+03 E-N=-5.018433447609D+03  KE= 8.919601117481D+02
 R6APFD:  NTU= -4 IXU= 1 FactS= 1.050
 Calling FoFJK, ICntrl=      2127 FMM=F ISym2X=0 I1Cent= 0 IOpClX= 0 NMat=1 NMatS=1 NMatT=0.
 ***** Axes restored to original set *****
 -------------------------------------------------------------------
 Center     Atomic                   Forces (Hartrees/Bohr)
 Number     Number              X              Y              Z
 -------------------------------------------------------------------
      1        8          -0.009695074    0.009793963   -0.010535141
      2        6           0.013737300    0.007257292   -0.000616576
      3        6          -0.002281935   -0.026372589    0.018579995
      4        6          -0.002260794   -0.006246764    0.003823159
      5        6          -0.005399345    0.014753946   -0.012684993
      6        6           0.003093798   -0.019099423    0.015066330
      7        6          -0.007796869    0.019461030   -0.017032595
      8        6           0.006987700   -0.019794493    0.017468204
      9        6          -0.008380280    0.017952143   -0.015820820
     10        6           0.007788456   -0.013800822    0.020927794
     11        6          -0.025383918    0.008335099   -0.016141452
     12        6           0.026420194    0.001057370    0.016646342
     13        6          -0.010563039   -0.009728230   -0.022148327
     14        6           0.011979529    0.014425644    0.017461450
     15        6          -0.011494877   -0.016117422   -0.019591375
     16        6           0.011389440    0.016760452    0.019609290
     17        6          -0.011424469   -0.016792327   -0.019499917
     18        6           0.012186548    0.016148878    0.019370816
     19        6          -0.005804311   -0.015121348   -0.014994703
     20        6           0.001775639    0.009495482    0.008518292
     21        8          -0.000948340   -0.001910324    0.001093488
     22        1           0.002188339   -0.002972128    0.000625035
     23        1           0.001226336   -0.000918500    0.003434414
     24        1           0.001899227    0.007041591   -0.004525180
     25        1          -0.003814503    0.003283044   -0.006180451
     26        1          -0.004824181    0.005442480   -0.003218386
     27        1           0.000691704   -0.004137425    0.004703278
     28        1           0.001293844   -0.005420751    0.002970044
     29        1          -0.000259399    0.003396770   -0.007071363
     30        1          -0.002122224    0.007402277   -0.001650333
     31        1           0.000768612   -0.002988269    0.006595860
     32        1           0.002495709   -0.006686012    0.001606772
     33        1          -0.000746358    0.002897427   -0.006829596
     34        1          -0.002645908    0.006898647   -0.001529874
     35        1           0.000697961   -0.003025390    0.006800103
     36        1           0.003153930   -0.005990645    0.001628716
     37        1          -0.000092087    0.003079768   -0.005365401
     38        1          -0.004793817    0.006388914   -0.000865001
     39        1          -0.002512418   -0.000013939    0.009121654
     40        1           0.002538305    0.000289173   -0.009130234
     41        1           0.006083502    0.005058399    0.001411633
     42        1           0.000729544    0.002457485    0.005645785
     43        1          -0.004438335   -0.005048359   -0.002130225
     44        1          -0.001270297   -0.002136722   -0.007043982
     45        1           0.004090648    0.005889334    0.002147181
     46        1           0.001336470    0.001956409    0.007068018
     47        1          -0.004037375   -0.005794955   -0.002138137
     48        1          -0.001379422   -0.001969998   -0.007021278
     49        1           0.004038527    0.005816591    0.002110889
     50        1           0.001356261    0.001977802    0.007000839
     51        1          -0.004054204   -0.006016767   -0.002133308
     52        1          -0.001301235   -0.002066352   -0.007147138
     53        1           0.002936404    0.006138485    0.002489384
     54        1           0.000692474    0.002907774    0.006531348
     55        1          -0.000348317   -0.005520099   -0.001106609
     56        1           0.001619798   -0.002701325   -0.004729147
     57        1           0.004877130   -0.005372294   -0.001574568
 -------------------------------------------------------------------
 Cartesian Forces:  Max     0.026420194 RMS     0.009204858

 GradGradGradGradGradGradGradGradGradGradGradGradGradGradGradGradGradGrad
 Berny optimization.
 FormGI is forming the generalized inverse of G from B-inverse, IUseBI=4.
 Internal  Forces:  Max     0.033494697 RMS     0.005442697
 Search for a local minimum.
 Step number   1 out of a maximum of  316
 All quantities printed in internal units (Hartrees-Bohrs-Radians)
 Mixed Optimization -- RFO/linear search
 Second derivative matrix not updated -- first step.
 ITU=  0
     Eigenvalues ---    0.00368   0.00368   0.00369   0.00369   0.00369
     Eigenvalues ---    0.00369   0.00369   0.00369   0.00369   0.00369
     Eigenvalues ---    0.00369   0.00369   0.00370   0.00673   0.00674
     Eigenvalues ---    0.00674   0.01003   0.01119   0.01716   0.01716
     Eigenvalues ---    0.02456   0.03280   0.03941   0.03942   0.03942
     Eigenvalues ---    0.03942   0.03942   0.03942   0.03942   0.03942
     Eigenvalues ---    0.03942   0.03942   0.03942   0.04538   0.04538
     Eigenvalues ---    0.04538   0.04991   0.04991   0.04991   0.04991
     Eigenvalues ---    0.04991   0.04991   0.04991   0.04991   0.04991
     Eigenvalues ---    0.04991   0.04992   0.05551   0.05551   0.05552
     Eigenvalues ---    0.05806   0.05806   0.07724   0.07724   0.07724
     Eigenvalues ---    0.07724   0.07724   0.07725   0.07725   0.07725
     Eigenvalues ---    0.07725   0.07725   0.07725   0.08839   0.08840
     Eigenvalues ---    0.08840   0.10232   0.10233   0.11736   0.11737
     Eigenvalues ---    0.11737   0.11737   0.11737   0.11737   0.11737
     Eigenvalues ---    0.11737   0.11737   0.11737   0.11737   0.12450
     Eigenvalues ---    0.12451   0.12451   0.16000   0.16000   0.16000
     Eigenvalues ---    0.16000   0.16000   0.16000   0.16000   0.16000
     Eigenvalues ---    0.21948   0.21948   0.21949   0.21949   0.21949
     Eigenvalues ---    0.21949   0.21949   0.21949   0.21949   0.21949
     Eigenvalues ---    0.21949   0.21985   0.21985   0.21985   0.22000
     Eigenvalues ---    0.22000   0.25000   0.25000   0.25000   0.29419
     Eigenvalues ---    0.29419   0.29421   0.29422   0.29422   0.29423
     Eigenvalues ---    0.29423   0.29423   0.29423   0.29423   0.29424
     Eigenvalues ---    0.29426   0.29426   0.31652   0.31657   0.31657
     Eigenvalues ---    0.34803   0.34803   0.34807   0.34807   0.34807
     Eigenvalues ---    0.34808   0.34809   0.34809   0.34809   0.34810
     Eigenvalues ---    0.34810   0.34810   0.34811   0.34813   0.34813
     Eigenvalues ---    0.34813   0.34813   0.34813   0.34814   0.34814
     Eigenvalues ---    0.34814   0.34814   0.34814   0.34814   0.34817
     Eigenvalues ---    0.34817   0.34818   0.34818   0.34818   0.34818
     Eigenvalues ---    0.34821   0.34821   0.34823   0.34825   0.35991
     Eigenvalues ---    0.35992   0.37978   0.56714   0.64515   1.00750
 RFO step:  Lambda=-3.41528999D-02 EMin= 3.68478834D-03
 Linear search not attempted -- first point.
 Maximum step size (   0.300) exceeded in Quadratic search.
    -- Step size scaled by   0.891
 Iteration  1 RMS(Cart)=  0.13308124 RMS(Int)=  0.00187493
 Iteration  2 RMS(Cart)=  0.00437499 RMS(Int)=  0.00012687
 Iteration  3 RMS(Cart)=  0.00000556 RMS(Int)=  0.00012686
 Iteration  4 RMS(Cart)=  0.00000000 RMS(Int)=  0.00012686
 Variable       Old X    -DE/DX   Delta X   Delta X   Delta X     New X
                                 (Linear)    (Quad)   (Total)
    R1        2.74397  -0.01893   0.00000  -0.04076  -0.04076   2.70322
    R2        2.53640  -0.00597   0.00000  -0.00885  -0.00885   2.52755
    R3        2.05971   0.00331   0.00000   0.00771   0.00771   2.06742
    R4        2.05963   0.00333   0.00000   0.00776   0.00776   2.06739
    R5        2.05978   0.00049   0.00000   0.00114   0.00114   2.06092
    R6        2.84785   0.00477   0.00000   0.01212   0.01212   2.85996
    R7        2.28340   0.00169   0.00000   0.00145   0.00145   2.28485
    R8        2.89131   0.00266   0.00000   0.00723   0.00723   2.89854
    R9        2.05966   0.00576   0.00000   0.01343   0.01343   2.07309
   R10        2.05972   0.00575   0.00000   0.01340   0.01340   2.07312
   R11        2.89134   0.00444   0.00000   0.01206   0.01206   2.90340
   R12        2.05985   0.00446   0.00000   0.01041   0.01041   2.07026
   R13        2.05979   0.00449   0.00000   0.01047   0.01047   2.07026
   R14        2.89124   0.00421   0.00000   0.01143   0.01143   2.90266
   R15        2.05985   0.00689   0.00000   0.01606   0.01606   2.07591
   R16        2.05979   0.00692   0.00000   0.01613   0.01613   2.07591
   R17        2.89122   0.00488   0.00000   0.01323   0.01323   2.90446
   R18        2.05986   0.00639   0.00000   0.01491   0.01491   2.07477
   R19        2.05972   0.00643   0.00000   0.01499   0.01499   2.07471
   R20        2.89129   0.00493   0.00000   0.01337   0.01337   2.90466
   R21        2.05985   0.00663   0.00000   0.01547   0.01547   2.07532
   R22        2.05972   0.00669   0.00000   0.01561   0.01561   2.07532
   R23        2.89126   0.00677   0.00000   0.01838   0.01838   2.90964
   R24        2.05966   0.00660   0.00000   0.01539   0.01539   2.07505
   R25        2.05995   0.00605   0.00000   0.01411   0.01411   2.07406
   R26        2.84776   0.00402   0.00000   0.01023   0.01023   2.85799
   R27        2.05984   0.00521   0.00000   0.01215   0.01215   2.07199
   R28        2.05995   0.00722   0.00000   0.01683   0.01683   2.07678
   R29        2.47537   0.03333   0.00000   0.04374   0.04374   2.51911
   R30        2.04095   0.00880   0.00000   0.01990   0.01990   2.06084
   R31        2.84776   0.00402   0.00000   0.01022   0.01022   2.85798
   R32        2.04096   0.00882   0.00000   0.01995   0.01995   2.06091
   R33        2.89137   0.00680   0.00000   0.01847   0.01847   2.90984
   R34        2.05989   0.00721   0.00000   0.01682   0.01682   2.07671
   R35        2.05978   0.00522   0.00000   0.01218   0.01218   2.07196
   R36        2.89129   0.00507   0.00000   0.01376   0.01376   2.90505
   R37        2.05974   0.00615   0.00000   0.01434   0.01434   2.07407
   R38        2.05980   0.00660   0.00000   0.01539   0.01539   2.07519
   R39        2.89129   0.00505   0.00000   0.01372   0.01372   2.90501
   R40        2.05985   0.00663   0.00000   0.01546   0.01546   2.07532
   R41        2.05979   0.00664   0.00000   0.01548   0.01548   2.07527
   R42        2.89131   0.00521   0.00000   0.01415   0.01415   2.90546
   R43        2.05989   0.00653   0.00000   0.01522   0.01522   2.07511
   R44        2.05979   0.00659   0.00000   0.01536   0.01536   2.07515
   R45        2.89137   0.00510   0.00000   0.01386   0.01386   2.90523
   R46        2.05985   0.00655   0.00000   0.01528   0.01528   2.07513
   R47        2.05978   0.00657   0.00000   0.01532   0.01532   2.07509
   R48        2.89129   0.00449   0.00000   0.01219   0.01219   2.90348
   R49        2.05974   0.00672   0.00000   0.01566   0.01566   2.07540
   R50        2.05980   0.00671   0.00000   0.01564   0.01564   2.07544
   R51        2.89129   0.00632   0.00000   0.01716   0.01716   2.90845
   R52        2.05960   0.00612   0.00000   0.01427   0.01427   2.07387
   R53        2.05979   0.00605   0.00000   0.01411   0.01411   2.07390
   R54        2.05989   0.00444   0.00000   0.01036   0.01036   2.07025
   R55        2.05978   0.00449   0.00000   0.01047   0.01047   2.07025
   R56        2.05988   0.00444   0.00000   0.01036   0.01036   2.07024
    A1        2.04210  -0.01356   0.00000  -0.04254  -0.04254   1.99956
    A2        1.91056   0.00219   0.00000   0.01066   0.01056   1.92112
    A3        1.91058   0.00219   0.00000   0.01064   0.01055   1.92113
    A4        1.91061  -0.01301   0.00000  -0.06089  -0.06097   1.84964
    A5        1.91067  -0.00066   0.00000  -0.00068  -0.00079   1.90988
    A6        1.91070   0.00464   0.00000   0.02012   0.02005   1.93075
    A7        1.91069   0.00465   0.00000   0.02015   0.02008   1.93076
    A8        2.09443  -0.03349   0.00000  -0.10507  -0.10507   1.98936
    A9        2.09432   0.01481   0.00000   0.04645   0.04645   2.14078
   A10        2.09443   0.01869   0.00000   0.05862   0.05862   2.15305
   A11        1.91060   0.00959   0.00000   0.04064   0.04036   1.95095
   A12        1.91066  -0.00387   0.00000  -0.01532  -0.01591   1.89475
   A13        1.91066  -0.00388   0.00000  -0.01534  -0.01593   1.89474
   A14        1.91063   0.00008   0.00000   0.01035   0.01040   1.92103
   A15        1.91060   0.00008   0.00000   0.01036   0.01041   1.92102
   A16        1.91065  -0.00201   0.00000  -0.03070  -0.03100   1.87964
   A17        1.91064   0.00502   0.00000   0.02363   0.02348   1.93412
   A18        1.91064  -0.00123   0.00000  -0.00266  -0.00283   1.90780
   A19        1.91068  -0.00123   0.00000  -0.00267  -0.00284   1.90784
   A20        1.91062  -0.00048   0.00000   0.00336   0.00329   1.91391
   A21        1.91059  -0.00048   0.00000   0.00334   0.00328   1.91386
   A22        1.91064  -0.00161   0.00000  -0.02499  -0.02502   1.88562
   A23        1.91067   0.00905   0.00000   0.03794   0.03777   1.94844
   A24        1.91062  -0.00173   0.00000  -0.00094  -0.00102   1.90959
   A25        1.91059  -0.00172   0.00000  -0.00085  -0.00093   1.90966
   A26        1.91058  -0.00249   0.00000  -0.00704  -0.00728   1.90330
   A27        1.91071  -0.00251   0.00000  -0.00716  -0.00740   1.90331
   A28        1.91064  -0.00060   0.00000  -0.02195  -0.02207   1.88857
   A29        1.91062   0.01149   0.00000   0.04687   0.04667   1.95729
   A30        1.91056  -0.00290   0.00000  -0.00680  -0.00701   1.90356
   A31        1.91063  -0.00290   0.00000  -0.00681  -0.00701   1.90362
   A32        1.91055  -0.00280   0.00000  -0.00603  -0.00621   1.90435
   A33        1.91070  -0.00280   0.00000  -0.00601  -0.00619   1.90451
   A34        1.91073  -0.00009   0.00000  -0.02121  -0.02139   1.88934
   A35        1.91065   0.01141   0.00000   0.04652   0.04632   1.95697
   A36        1.91062  -0.00283   0.00000  -0.00644  -0.00661   1.90402
   A37        1.91070  -0.00279   0.00000  -0.00592  -0.00611   1.90459
   A38        1.91064  -0.00289   0.00000  -0.00691  -0.00709   1.90355
   A39        1.91055  -0.00283   0.00000  -0.00629  -0.00650   1.90405
   A40        1.91064  -0.00008   0.00000  -0.02096  -0.02114   1.88951
   A41        1.91068   0.01129   0.00000   0.04603   0.04584   1.95652
   A42        1.91064  -0.00301   0.00000  -0.00695  -0.00714   1.90349
   A43        1.91061  -0.00224   0.00000  -0.00283  -0.00292   1.90768
   A44        1.91070  -0.00252   0.00000  -0.00484  -0.00504   1.90566
   A45        1.91056  -0.00342   0.00000  -0.01054  -0.01079   1.89977
   A46        1.91062  -0.00010   0.00000  -0.02088  -0.02105   1.88957
   A47        1.91067   0.00972   0.00000   0.03948   0.03933   1.95000
   A48        1.91064  -0.00130   0.00000  -0.00154  -0.00166   1.90898
   A49        1.91056  -0.00355   0.00000  -0.01318  -0.01346   1.89710
   A50        1.91069  -0.00331   0.00000  -0.00963  -0.00978   1.90091
   A51        1.91066  -0.00102   0.00000   0.00444   0.00441   1.91507
   A52        1.91058  -0.00053   0.00000  -0.01957  -0.01970   1.89088
   A53        2.09444   0.01815   0.00000   0.06366   0.06363   2.15807
   A54        2.09437  -0.01263   0.00000  -0.04815  -0.04818   2.04619
   A55        2.09437  -0.00552   0.00000  -0.01552  -0.01555   2.07882
   A56        2.09444   0.01803   0.00000   0.06325   0.06322   2.15766
   A57        2.09436  -0.00547   0.00000  -0.01532  -0.01536   2.07900
   A58        2.09438  -0.01257   0.00000  -0.04793  -0.04796   2.04642
   A59        1.91066   0.00987   0.00000   0.04004   0.03988   1.95055
   A60        1.91062  -0.00103   0.00000   0.00466   0.00464   1.91525
   A61        1.91065  -0.00337   0.00000  -0.00991  -0.01006   1.90059
   A62        1.91057  -0.00361   0.00000  -0.01332  -0.01362   1.89695
   A63        1.91066  -0.00136   0.00000  -0.00184  -0.00196   1.90869
   A64        1.91065  -0.00051   0.00000  -0.01962  -0.01975   1.89090
   A65        1.91061   0.01140   0.00000   0.04644   0.04624   1.95685
   A66        1.91052  -0.00347   0.00000  -0.01081  -0.01105   1.89946
   A67        1.91057  -0.00255   0.00000  -0.00484  -0.00506   1.90552
   A68        1.91068  -0.00229   0.00000  -0.00314  -0.00322   1.90745
   A69        1.91069  -0.00301   0.00000  -0.00677  -0.00697   1.90371
   A70        1.91074  -0.00008   0.00000  -0.02087  -0.02105   1.88969
   A71        1.91056   0.01191   0.00000   0.04835   0.04815   1.95871
   A72        1.91068  -0.00292   0.00000  -0.00626  -0.00647   1.90421
   A73        1.91059  -0.00301   0.00000  -0.00727  -0.00744   1.90314
   A74        1.91066  -0.00296   0.00000  -0.00653  -0.00674   1.90392
   A75        1.91070  -0.00301   0.00000  -0.00731  -0.00749   1.90321
   A76        1.91061   0.00000   0.00000  -0.02098  -0.02117   1.88943
   A77        1.91061   0.01224   0.00000   0.04960   0.04940   1.96001
   A78        1.91062  -0.00310   0.00000  -0.00736  -0.00756   1.90305
   A79        1.91070  -0.00309   0.00000  -0.00724  -0.00745   1.90325
   A80        1.91058  -0.00306   0.00000  -0.00709  -0.00728   1.90330
   A81        1.91059  -0.00304   0.00000  -0.00687  -0.00707   1.90352
   A82        1.91070   0.00005   0.00000  -0.02104  -0.02124   1.88945
   A83        1.91066   0.01213   0.00000   0.04916   0.04896   1.95962
   A84        1.91063  -0.00302   0.00000  -0.00683  -0.00703   1.90359
   A85        1.91068  -0.00305   0.00000  -0.00712  -0.00731   1.90337
   A86        1.91061  -0.00305   0.00000  -0.00706  -0.00727   1.90335
   A87        1.91066  -0.00306   0.00000  -0.00722  -0.00742   1.90324
   A88        1.91056   0.00005   0.00000  -0.02093  -0.02113   1.88943
   A89        1.91061   0.01213   0.00000   0.04923   0.04902   1.95963
   A90        1.91052  -0.00300   0.00000  -0.00669  -0.00688   1.90364
   A91        1.91057  -0.00299   0.00000  -0.00658  -0.00677   1.90380
   A92        1.91068  -0.00308   0.00000  -0.00737  -0.00758   1.90309
   A93        1.91069  -0.00308   0.00000  -0.00733  -0.00755   1.90314
   A94        1.91074   0.00001   0.00000  -0.02125  -0.02145   1.88929
   A95        1.91056   0.00909   0.00000   0.03813   0.03795   1.94851
   A96        1.91065  -0.00272   0.00000  -0.00875  -0.00904   1.90161
   A97        1.91059  -0.00272   0.00000  -0.00880  -0.00909   1.90150
   A98        1.91067  -0.00152   0.00000   0.00078   0.00073   1.91140
   A99        1.91070  -0.00153   0.00000   0.00073   0.00069   1.91139
   A100       1.91063  -0.00060   0.00000  -0.02207  -0.02222   1.88842
   A101       1.91062   0.00289   0.00000   0.01247   0.01230   1.92292
   A102       1.91066   0.00290   0.00000   0.01250   0.01232   1.92298
   A103       1.91058   0.00747   0.00000   0.03593   0.03560   1.94618
   A104       1.91065  -0.00370   0.00000  -0.02022  -0.02024   1.89041
   A105       1.91056  -0.00478   0.00000  -0.02030  -0.02062   1.88994
   A106       1.91073  -0.00479   0.00000  -0.02037  -0.02069   1.89005
    D1       -1.04721  -0.00093   0.00000  -0.00603  -0.00606  -1.05328
    D2        1.04715   0.00094   0.00000   0.00617   0.00620   1.05335
    D3        3.14156   0.00000   0.00000   0.00008   0.00008  -3.14155
    D4       -3.14158  -0.00000   0.00000  -0.00002  -0.00002   3.14158
    D5        0.00003  -0.00000   0.00000  -0.00007  -0.00007  -0.00005
    D6       -3.14159   0.00001   0.00000   0.00011   0.00011  -3.14148
    D7       -1.04721   0.00361   0.00000   0.02830   0.02800  -1.01920
    D8        1.04724  -0.00360   0.00000  -0.02808  -0.02779   1.01945
    D9       -0.00001   0.00001   0.00000   0.00015   0.00015   0.00015
   D10        2.09438   0.00361   0.00000   0.02834   0.02805   2.12243
   D11       -2.09436  -0.00360   0.00000  -0.02803  -0.02774  -2.12210
   D12       -3.14157   0.00000   0.00000   0.00002   0.00002  -3.14155
   D13       -1.04719   0.00174   0.00000   0.01697   0.01696  -1.03023
   D14        1.04724  -0.00173   0.00000  -0.01690  -0.01689   1.03035
   D15        1.04722  -0.00118   0.00000  -0.01245  -0.01263   1.03459
   D16       -3.14159   0.00056   0.00000   0.00450   0.00431  -3.13728
   D17       -1.04716  -0.00291   0.00000  -0.02937  -0.02954  -1.07669
   D18       -1.04718   0.00118   0.00000   0.01247   0.01265  -1.03453
   D19        1.04720   0.00291   0.00000   0.02942   0.02958   1.07679
[...]
 87,0.00000052,-0.00000499,-0.00000450,0.00000095,0.00000035,0.00000191
 ,-0.00000087,0.00000041,-0.00000099,0.00000068,-0.00000024,0.00000128,
 -0.00000063,0.00000125,-0.00000126,0.00000153,-0.00000054,0.00000228,-
 0.00000139,0.00000193,-0.00000222,0.00000361,0.00000056,0.00000303,-0.
 00000329,0.00000114,-0.00000073,0.00000230,-0.00000636,-0.00000616,-0.
 00000888,0.00001144,0.00000222,0.00000778,-0.00000529,-0.00001879,-0.0
 0000890,0.00003605,0.00000736,0.00002862,-0.00002606,-0.00012395,-0.00
 001400,0.00010787,0.00023652,0.00003295,0.00154992,0.00058728,-0.00049
 346,0.00672790,0.01023777,-0.00539872,-0.12679043,-0.10879554,0.052122
 22,0.00000209,0.00000308,-0.00000103,-0.00000002,0.00000025,0.00000007
 ,0.00000006,0.00000012,-0.00000024,0.00000023,-0.00000002,0.00000008,-
 0.00000006,-0.00000016,0.,0.,-0.00000014,0.00000012,-0.00000007,-0.000
 00015,-0.00000024,-0.00000020,-0.00000010,0.00000020,-0.00000010,-0.00
 000001,-0.00000009,0.00000014,-0.00000016,0.,-0.00000009,-0.00000005,-
 0.00000049,-0.00000031,-0.00000016,0.00000009,-0.00000013,0.00000012,0
 .00000005,0.00000058,-0.00000048,-0.00000009,-0.00000043,-0.00000022,-
 0.00000050,-0.00000074,-0.00000089,-0.00000016,0.,0.00000054,0.0000005
 8,0.00000290,-0.00000129,0.00000017,-0.00000038,-0.00000011,0.00000021
 ,0.00000067,0.00000103,0.00000126,0.00000061,0.00000097,0.00000063,0.0
 0000011,-0.00000073,-0.00000116,0.00000096,0.00000262,-0.00000034,-0.0
 0000081,0.00000047,0.00000076,0.00000044,-0.00000520,0.00000025,-0.000
 00009,-0.00000068,-0.00000503,-0.00002603,0.00000143,-0.00000429,-0.00
 000084,0.00000323,0.00000333,-0.00015030,-0.00008162,0.00003576,0.0000
 1570,-0.00002504,-0.00002510,-0.00011338,-0.00031736,0.00033668,-0.000
 02640,-0.00010025,-0.00005373,-0.00035596,0.00279003,0.00043635,0.0003
 6417,-0.00086677,-0.00028371,0.13430630,-0.00000124,0.00000135,-0.0000
 0086,0.00000022,-0.00000056,0.00000012,0.00000172,-0.00000403,0.000002
 26,0.00000033,0.00000092,-0.00000035,0.00000040,-0.00000098,0.00000015
 ,0.00000020,0.00000083,-0.00000033,0.00000108,-0.00000192,0.00000062,-
 0.00000006,0.00000153,-0.00000076,0.00000175,-0.00000328,0.00000196,-0
 .00000016,0.00000096,-0.00000183,0.00000181,0.00000195,0.00000093,-0.0
 0000430,-0.00000013,-0.00000465,0.00000546,-0.00000183,0.00000458,-0.0
 0000443,-0.00001034,0.00000018,0.00000312,0.00001053,0.00000842,0.0000
 5548,0.00004079,-0.00004857,0.00031569,0.00016300,-0.00022164,-0.00181
 560,0.00095908,0.00028868,-0.01628489,-0.02361781,0.01106314,-0.108304
 72,-0.19169877,0.07079924,-0.00000096,0.00000335,-0.00000151,0.0000000
 3,0.00000004,0.00000018,0.00000011,-0.00000012,-0.00000004,-0.00000009
 ,0.00000006,-0.00000007,0.00000004,-0.00000019,-0.00000015,-0.00000016
 ,0.00000010,0.00000019,0.00000013,-0.00000019,-0.00000031,-0.00000008,
 0.00000031,0.00000047,-0.00000006,-0.00000014,-0.00000035,-0.00000036,
 0.00000039,0.00000022,0.00000017,-0.00000017,-0.00000067,-0.00000025,0
 .00000071,0.00000074,-0.00000009,-0.00000012,-0.00000040,-0.00000023,0
 .00000049,0.00000028,0.,-0.00000035,-0.00000093,-0.00000073,0.00000042
 ,0.00000101,0.00000007,0.00000009,-0.00000013,0.00000145,-0.00000006,0
 .00000050,-0.00000021,-0.00000164,-0.00000035,0.00000018,-0.00000058,0
 .00000063,0.00000080,0.00000391,-0.00000105,-0.00000066,-0.00000120,-0
 .00000026,0.00000622,0.00000313,-0.00000182,-0.00000093,-0.00000033,0.
 00000097,-0.00000373,0.00001238,-0.00000464,-0.00000313,-0.00000401,-0
 .00000149,0.00007608,-0.00000190,0.00000285,-0.00000178,-0.00000282,0.
 00000623,-0.00007164,0.00037632,-0.00002258,-0.00005212,-0.00002772,-0
 .00000109,0.00130995,0.00014247,-0.00001790,0.00005708,-0.00000740,-0.
 00002232,0.00304590,-0.00436598,-0.00238577,-0.00024921,0.00090304,-0.
 00037688,0.11727074,0.21255601,0.00000241,-0.00000039,0.00000033,-0.00
 000076,0.00000007,0.00000038,-0.00000287,0.00000181,-0.00000099,-0.000
 00014,-0.00000006,0.00000006,-0.00000029,0.00000063,0.00000045,-0.0000
 0014,-0.00000012,0.00000004,-0.00000059,0.00000130,0.00000087,-0.00000
 003,-0.00000012,0.00000019,-0.00000061,0.00000149,0.00000110,0.0000002
 8,0.00000062,-0.00000016,-0.00000033,-0.00000200,0.00000102,-0.0000001
 5,-0.00000156,-0.00000098,-0.00000126,0.00000142,0.00000112,0.00000081
 ,0.00000516,-0.00000071,-0.00002270,-0.00000090,0.00000176,0.00001373,
 0.00008554,-0.00001899,-0.00025541,-0.00009404,-0.00000725,-0.00020902
 ,0.00033448,-0.00003684,-0.00640427,-0.00898526,0.00392731,0.05206020,
 0.07116891,-0.08105549,0.00000145,-0.00000184,0.00000019,0.00000001,-0
 .00000003,-0.00000013,-0.00000007,0.00000012,-0.00000013,0.00000013,-0
 .00000003,0.00000013,-0.00000015,0.00000019,0.00000002,0.00000020,-0.0
 0000020,-0.00000010,-0.00000003,0.00000007,-0.00000008,0.00000008,-0.0
 0000043,-0.00000025,-0.00000013,0.00000024,-0.00000006,0.00000040,-0.0
 0000052,-0.00000021,0.00000002,0.00000006,-0.00000015,0.00000022,-0.00
 000077,-0.00000046,-0.00000017,0.00000032,-0.00000009,0.00000043,-0.00
 000070,-0.00000023,0.00000006,0.,-0.00000026,0.00000038,-0.00000080,-0
 .00000040,-0.00000009,0.00000029,-0.00000011,0.00000032,-0.00000061,-0
 .00000015,0.00000008,0.00000078,-0.00000033,0.00000004,0.00000123,-0.0
 0000055,-0.00000028,-0.00000156,0.00000004,0.00000067,-0.00000040,-0.0
 0000120,-0.00000201,-0.00000099,0.00000318,0.00000033,0.00000184,-0.00
 000196,-0.00000055,-0.00000511,-0.00000213,0.00000161,-0.00000231,-0.0
 0000368,0.00000289,-0.00000545,0.00002031,-0.00000024,0.00000699,-0.00
 000659,0.00003716,-0.00001485,-0.00005351,0.00000732,-0.00003602,-0.00
 004152,-0.00011065,0.00031189,0.00013954,0.00013008,0.00010481,-0.0000
 6782,0.00092616,-0.00235554,0.00031453,-0.00071815,0.00023288,0.000380
 42,-0.05796444,-0.07584838,0.08359178,0.00000535,0.00000106,0.00000066
 ,-0.00000160,-0.00000107,0.00000040,-0.00000605,-0.00000045,-0.0000010
 0,0.00000005,0.00000100,-0.00000053,0.00000002,-0.00000007,0.00000061,
 -0.00000032,0.00000075,-0.00000031,0.00000034,0.00000008,0.00000101,-0
 .00000039,0.00000116,-0.00000081,0.00000066,0.,0.00000287,0.00000050,0
 .00000251,-0.00000199,0.00000016,-0.00000195,0.00000160,-0.00000376,-0
 .00000631,-0.00000575,0.00000698,0.00000335,0.00000463,-0.00000401,-0.
 00001115,-0.00000281,0.00002286,0.00001193,0.00000017,-0.00000674,-0.0
 0003551,-0.00005663,-0.00009096,0.00015570,-0.00006462,0.00084374,-0.0
 0057806,0.00136720,-0.00078842,0.00053310,0.01253032,-0.04675619,-0.00
 046011,-0.00144135,0.00000271,-0.00000025,0.00000025,-0.00000003,0.000
 00018,-0.00000011,-0.00000004,0.00000022,-0.00000020,0.00000030,-0.000
 00006,0.00000014,-0.00000014,0.00000006,0.00000012,0.00000014,-0.00000
 024,-0.00000008,-0.00000011,0.,-0.00000004,-0.00000006,-0.00000038,-0.
 00000014,-0.00000013,0.00000016,0.00000011,0.00000039,-0.00000050,-0.0
 0000022,-0.00000010,0.00000003,-0.00000013,0.,-0.00000071,-0.00000035,
 -0.00000016,0.00000031,0.00000019,0.00000069,-0.00000081,-0.00000032,-
 0.00000026,-0.00000006,-0.00000019,-0.00000021,-0.00000117,-0.00000059
 ,-0.00000010,0.00000064,0.00000044,0.00000194,-0.00000120,-0.00000017,
 0.,0.00000051,0.00000007,0.00000043,0.00000203,0.00000050,-0.00000031,
 -0.00000088,0.00000084,0.00000069,-0.00000088,-0.00000151,-0.00000102,
 0.00000010,0.00000144,-0.00000076,0.00000292,-0.00000143,-0.00000148,-
 0.00000491,0.00000294,0.00000388,-0.00000659,-0.00000695,-0.00000384,0
 .00000229,0.00000640,-0.00002673,0.00001596,-0.00002678,0.00000911,-0.
 00005894,0.00001243,-0.00000421,-0.00008969,-0.00017195,-0.00000889,-0
 .00006667,0.00003267,-0.00022964,0.00035207,-0.00051698,0.00025495,-0.
 00041162,-0.00064254,-0.00039754,0.00235847,0.00064492,-0.00028316,0.0
 0188892,0.01848260,0.04632534,0.00000047,-0.00000017,0.00000005,-0.000
 00015,0.00000009,0.00000010,-0.00000056,0.00000051,-0.00000023,-0.0000
 0006,-0.00000003,0.00000005,-0.00000007,0.00000020,0.00000018,-0.00000
 004,-0.00000002,-0.00000006,-0.00000007,0.00000028,0.00000015,-0.00000
 006,0.,-0.00000012,0.00000005,0.00000022,0.00000007,-0.00000006,0.0000
 0025,-0.00000003,0.00000018,-0.00000057,0.00000015,-0.00000099,-0.0000
 0037,-0.00000013,0.00000010,0.00000060,-0.00000114,-0.00000002,0.00000
 368,-0.00000041,-0.00002142,0.00000868,-0.00001035,-0.00002081,0.00003
 567,0.00013768,-0.00008904,-0.00013028,0.00002961,-0.00136253,0.001143
 25,-0.00060137,0.00048589,-0.00237785,-0.03172978,-0.00047038,-0.04629
 411,-0.01336350,0.00000030,-0.00000051,0.00000002,0.00000001,-0.000000
 02,-0.00000003,-0.00000002,0.00000002,-0.00000004,0.00000003,0.,0.0000
 0003,-0.00000004,0.00000007,0.,0.00000004,-0.00000005,-0.00000004,0.,0
 .,-0.00000001,0.00000003,-0.00000010,-0.00000005,-0.00000001,0.0000000
 8,0.00000003,0.00000009,-0.00000013,-0.00000007,-0.00000002,-0.0000000
 3,0.00000002,0.00000004,-0.00000018,-0.00000008,0.00000002,0.00000009,
 0.00000010,0.00000009,-0.00000015,-0.00000010,-0.00000008,-0.00000004,
 0.00000011,0.00000002,-0.00000012,-0.00000021,0.00000007,0.00000007,0.
 00000024,0.00000011,-0.00000014,-0.00000012,-0.00000011,0.00000032,0.0
 0000030,0.00000092,0.00000016,0.00000044,-0.00000035,-0.00000097,-0.00
 000057,-0.00000099,0.00000009,0.00000103,-0.00000079,0.,0.00000118,0.0
 0000237,0.00000066,0.00000132,-0.00000079,-0.00000392,-0.00000254,-0.0
 0000636,0.00000099,0.00000416,-0.00000264,0.00000054,0.00000157,0.0000
 5644,-0.00000733,0.00002141,-0.00002816,-0.00003062,-0.00003422,-0.000
 08774,0.00010589,0.00021880,0.00005092,-0.00001167,0.00016738,0.000511
 58,0.00001371,0.00073981,-0.00083776,0.00093402,0.00021849,0.00281005,
 -0.00515202,-0.00166703,0.00149921,0.00142057,0.02423595,-0.00194748,0
 .05148449,0.00000451,0.00000130,0.00000133,-0.00000104,-0.00000132,-0.
 00000041,-0.00000503,-0.00000103,-0.00000168,0.00000006,0.00000110,-0.
 00000082,0.00000059,-0.00000098,-0.00000017,-0.00000029,0.00000105,-0.
 00000115,0.00000134,-0.00000149,-0.00000008,-0.00000057,0.00000168,-0.
 00000201,0.00000217,-0.00000238,0.00000096,0.00000021,0.00000267,-0.00
 000316,0.00000200,-0.00000060,0.00000047,-0.00000612,-0.00000565,-0.00
 000957,0.00001221,0.00000120,0.00000548,-0.00000325,-0.00001569,-0.000
 01523,0.00003331,0.00001546,0.00001753,0.00000779,-0.00007151,-0.00002
 891,0.00013448,-0.00001606,0.00048861,-0.00053336,0.00059876,0.0004722
 8,-0.00005381,-0.00089216,-0.00970814,-0.00116680,-0.01390611,-0.30689
 088,0.00000206,0.00000055,0.00000155,-0.00000011,0.00000035,-0.0000000
 9,0.00000001,0.00000020,0.00000007,0.00000030,-0.00000009,-0.00000003,
 0.00000013,-0.00000022,0.00000034,-0.00000010,-0.00000002,-0.00000007,
 -0.00000023,-0.00000003,0.00000050,-0.00000021,0.00000021,-0.00000015,
 0.00000023,-0.00000026,0.00000089,-0.00000003,0.00000006,-0.00000002,-
 0.00000042,0.00000007,0.00000090,-0.00000032,0.00000032,-0.00000034,0.
 00000036,-0.00000035,0.00000135,0.00000029,-0.00000008,-0.00000005,-0.
 00000085,0.00000013,0.00000143,-0.00000077,-0.00000018,-0.00000077,0.0
 0000021,0.00000011,0.00000204,0.00000205,-0.00000066,-0.00000006,-0.00
 000051,0.00000005,0.00000198,0.00000244,0.00000052,0.00000346,-0.00000
 053,0.00000015,-0.00000068,-0.00000194,0.00000098,0.00000300,0.0000002
 8,0.00000107,-0.00000178,0.00000165,-0.00000110,0.00000828,-0.00000293
 ,-0.00000255,-0.00000220,-0.00000540,0.00000412,0.00000546,0.00000425,
 0.00000522,-0.00000670,0.00002438,-0.00001614,0.00002667,-0.00001753,-
 0.00000280,-0.00003226,-0.00016773,0.00020605,0.00006634,-0.00000331,-
 0.00007238,-0.00007928,0.00084041,-0.00031494,0.00031130,-0.00011372,-
 0.00046588,0.00047352,0.00052173,-0.00197973,0.00112944,-0.00082594,-0
 .00102901,-0.01041508,0.00044495,0.01814536,0.33301134,-0.00001649,-0.
 00000484,-0.00000160,0.00000494,0.00000421,-0.00000120,0.00001825,0.00
 000537,0.00000166,-0.00000039,-0.00000431,0.00000201,-0.00000073,0.000
 00158,-0.00000189,0.00000089,-0.00000330,0.00000186,-0.00000259,0.0000
 0193,-0.00000364,0.00000152,-0.00000575,0.00000405,-0.00000483,0.00000
 431,-0.00000974,-0.00000197,-0.00000970,0.00000887,-0.00000373,0.00000
 525,-0.00000711,0.00001801,0.00002405,0.00002741,-0.00003890,-0.000010
 91,-0.00002516,0.00001167,0.00006757,0.00004250,-0.00014418,-0.0000646
 9,-0.00009687,0.00004260,0.00035647,0.00020291,-0.00055983,-0.00041521
 ,-0.00067821,0.00047773,0.00307775,0.00166668,-0.00934322,-0.00057710,
 -0.00350149,-0.28116712,0.02920134,-0.08004245,-0.00000800,-0.00000247
 ,-0.00000003,0.00000009,-0.00000069,0.00000021,0.00000002,-0.00000062,
 0.00000061,-0.00000091,0.00000014,-0.00000037,0.00000027,0.00000013,-0
 .00000035,-0.00000024,0.00000064,0.00000005,0.00000037,0.00000012,0.00
 000012,0.00000035,0.00000072,0.00000019,0.00000021,-0.00000013,-0.0000
 0047,-0.00000084,0.00000115,0.00000042,0.00000050,-0.00000017,0.000000
 37,0.00000044,0.00000128,0.00000077,0.00000025,-0.00000043,-0.00000100
 ,-0.00000201,0.00000205,0.00000062,0.00000140,0.00000010,0.00000031,0.
 00000152,0.00000306,0.00000165,0.00000011,-0.00000160,-0.00000231,-0.0
 0000805,0.00000412,0.00000005,0.00000071,-0.00000114,-0.00000087,-0.00
 000282,-0.00000515,-0.00000429,0.00000094,-0.00000013,-0.00000260,0.00
 000008,0.00000055,0.00000302,-0.00000112,-0.00000450,-0.00000072,0.000
 00161,-0.00000301,-0.00000472,0.00000859,0.00000639,-0.00000403,0.0000
 0246,-0.00000105,0.00001311,-0.00000102,-0.00002063,0.00000285,0.00000
 862,-0.00000696,-0.00001747,-0.00000075,0.00011375,-0.00001232,-0.0000
 1864,0.00000490,0.00008126,0.00046309,-0.00007577,0.00000595,0.0001582
 2,-0.00012860,-0.00004230,0.00046745,0.00040244,-0.00010439,-0.0000586
 2,0.00002281,0.00053158,-0.01534354,0.00275670,-0.00597456,0.00113612,
 -0.00053944,0.00086853,0.30390150,0.00000655,0.00000230,0.00000067,-0.
 00000185,-0.00000183,0.00000034,-0.00000711,-0.00000328,-0.00000037,0.
 00000020,0.00000219,-0.00000119,0.00000073,-0.00000124,0.00000094,-0.0
 0000048,0.00000234,-0.00000121,0.00000227,-0.00000247,0.00000169,-0.00
 000076,0.00000387,-0.00000310,0.00000449,-0.00000453,0.00000624,0.0000
 0069,0.00000820,-0.00000692,0.00000586,-0.00000308,0.00000565,-0.00001
 352,-0.00002424,-0.00002392,0.00004559,0.00001145,0.00002481,-0.000008
 50,-0.00009923,-0.00004492,0.00022986,0.00007285,0.00012336,0.00003392
 ,-0.00066233,-0.00032422,0.00184479,0.00053616,0.00071004,0.00042550,-
 0.00570859,-0.00286319,0.02841298,-0.00196263,0.01123106,0.02825798,-0
 .04985173,0.00965001,0.00000305,0.00000187,0.,-0.00000003,0.00000033,-
 0.00000006,0.00000003,0.00000025,-0.00000019,0.00000038,-0.00000003,0.
 00000011,-0.00000005,-0.00000015,0.00000018,0.,-0.00000021,0.,-0.00000
 017,-0.00000009,0.,-0.00000020,-0.00000010,0.00000003,-0.00000003,-0.0
 0000007,0.00000036,0.00000020,-0.00000034,-0.00000010,-0.00000025,0.00
 000005,-0.00000015,-0.00000033,-0.00000015,-0.00000010,-0.00000003,0.0
 0000006,0.00000076,0.00000093,-0.00000079,-0.00000016,-0.00000090,-0.0
 0000015,-0.00000005,-0.00000135,-0.00000135,-0.00000060,0.00000029,0.0
 0000085,0.00000183,0.00000508,-0.00000208,0.00000018,-0.00000079,-0.00
 000031,0.00000087,0.00000244,0.00000367,0.00000382,-0.00000185,0.00000
 048,0.00000220,-0.00000049,-0.00000004,-0.00000210,0.00000154,0.000004
 99,-0.00000282,-0.00000154,0.00000127,0.00000685,-0.00001013,-0.000006
 53,0.00000794,-0.00000241,0.00000543,-0.00001090,-0.00000110,0.0000249
 4,-0.00002448,-0.00001953,0.00000271,0.00002676,-0.00008293,0.00001834
 ,0.00008870,0.00000784,0.00002600,-0.00007719,0.00021806,0.00016883,-0
 .00023575,-0.00030182,-0.00006367,0.00002649,-0.00048696,0.00057006,0.
 00077393,-0.00043734,0.00107176,-0.00025865,-0.02229847,0.00314982,-0.
 00913809,-0.00164776,-0.00114378,-0.00018730,-0.03418258,0.05385396,-0
 .00000360,-0.00000048,-0.00000068,0.00000104,0.00000065,-0.00000011,0.
 00000414,-0.00000041,0.00000117,0.00000002,-0.00000046,0.00000017,0.00
 000003,-0.00000002,0.00000001,0.00000017,-0.00000016,0.00000020,0.0000
 0016,-0.00000050,-0.00000053,0.00000009,-0.00000005,0.00000026,0.00000
 023,-0.00000065,-0.00000021,0.00000019,-0.00000061,-0.00000026,0.00000
 089,0.00000040,0.00000148,0.00000054,-0.00000057,-0.00000127,0.0000066
 9,-0.00000012,0.00000430,0.00000625,-0.00001559,-0.00002094,0.00005260
 ,0.00000346,0.00003915,0.00003168,-0.00019001,-0.00008802,0.00047521,-
 0.00019538,0.00068629,0.00032206,-0.00180589,-0.00056178,0.01132586,-0
 .00052016,0.00287971,-0.08050458,0.01000972,-0.07383035,-0.00000184,0.
 00000066,-0.00000065,0.00000004,-0.00000013,0.00000010,0.00000004,-0.0
 0000016,0.00000009,-0.00000021,0.00000006,-0.00000009,0.00000007,-0.00
 000004,-0.00000013,-0.00000008,0.00000014,0.00000009,0.00000009,-0.000
 00002,-0.00000010,0.00000003,0.00000022,0.00000014,0.00000004,-0.00000
 008,-0.00000020,-0.00000022,0.00000028,0.00000016,0.00000011,-0.000000
 04,-0.00000019,-0.00000002,0.00000041,0.00000030,0.00000005,-0.0000001
 4,-0.00000026,-0.00000032,0.00000039,0.00000023,0.00000018,0.,-0.00000
 026,-0.00000001,0.00000060,0.00000036,0.00000007,-0.00000023,-0.000000
 36,-0.00000050,0.00000045,0.00000030,-0.00000002,-0.00000058,-0.000000
 36,-0.00000029,-0.00000087,0.00000003,-0.00000020,0.00000069,-0.000000
 04,0.00000001,0.00000062,-0.00000019,0.00000161,0.00000060,-0.00000069
 ,-0.00000149,-0.00000073,0.00000131,-0.00000058,0.00000280,0.00000102,
 0.00000083,0.00000136,-0.00000405,-0.00000085,0.00000661,-0.00000454,-
 0.00001004,-0.00000764,0.00000765,0.00001111,-0.00002772,-0.00000807,-
 0.00004123,0.00011731,0.00000199,-0.00028193,-0.00008816,-0.00010206,0
 .00030804,-0.00016987,0.00043101,-0.00046773,0.00050073,0.00013056,0.0
 0020797,0.00056843,0.00019504,0.01207905,-0.00218747,0.00333385,-0.030
 59401,0.00348641,-0.00883477,0.08707255,-0.00948807,0.07574420\\-0.000
 00045,0.00000037,-0.00000189,0.00000031,0.00000256,0.00000186,-0.00000
 043,0.00000038,0.00000285,0.00000106,0.00000093,0.00000057,-0.00000085
 ,-0.00000048,0.00000062,0.00000062,0.00000104,0.00000042,-0.00000049,0
 .00000009,0.00000066,0.00000060,0.00000067,0.00000054,-0.00000077,-0.0
 0000104,0.00000058,0.00000118,0.00000201,0.00000041,-0.00000003,0.0000
 0008,0.00000005,0.00000034,-0.00000159,0.00000198,-0.00000040,-0.00000
 011,-0.00000046,0.,-0.00000018,-0.00000002,-0.00000028,-0.00000055,-0.
 00000027,0.00000014,-0.00000031,-0.00000047,-0.00000035,-0.00000072,-0
 .00000065,-0.00000003,-0.00000054,-0.00000107,-0.00000013,-0.00000098,
 -0.00000121,-0.00000029,-0.00000054,-0.00000152,-0.00000003,0.00000099
 ,-0.00000105,-0.00000078,0.00000111,-0.00000088,0.00000059,0.00000017,
 0.,-0.00000023,0.00000084,0.00000023,-0.00000024,0.00000112,0.00000050
 ,-0.00000019,0.00000067,0.00000075,0.00000006,0.00000033,0.00000014,-0
 .00000011,0.00000077,0.00000005,-0.00000007,0.00000076,0.00000072,0.00
 000008,0.00000040,0.00000087,0.00000020,0.00000003,0.00000028,0.000000
 02,0.00000036,0.00000018,0.00000008,0.00000062,0.00000085,0.00000022,0
 .00000020,0.00000087,0.00000037,-0.00000011,0.00000044,0.00000027,0.00
 000020,0.00000029,-0.00000011,0.00000054,0.00000089,0.00000016,-0.0000
 0061,0.00000115,0.00000043,0.00000017,0.00000077,0.00000010,0.00000006
 ,0.00000049,0.00000026,-0.00000002,0.00000084,0.00000051,-0.00000085,0
 .00000050,0.,-0.00000005,-0.00000014,0.00000020,-0.00000011,0.00000005
 ,0.00000001,-0.00000027,0.00000005,0.00000036,-0.00000092,-0.00000010,
 -0.00000022,-0.00000033,-0.00000072,-0.00000001,-0.00000026,-0.0000004
 2,-0.00000006,-0.00000054,-0.00000052,0.00000014,-0.00000108,-0.000000
 70,-0.00000032,-0.00000055,-0.00000120,-0.00000021,-0.00000034,-0.0000
 0097,-0.00000014,-0.00000082,-0.00000104,-0.00000005,-0.00000116,-0.00
 000124,-0.00000030,-0.00000082,-0.00000166,-0.00000044,-0.00000052,-0.
 00000152,-0.00000031,-0.00000107,-0.00000174\\\@


 Standing in the middle of the road is very dangerous;
 you get knocked down by the traffic from both sides.
                                -- Margaret Thatcher
 Job cpu time:       0 days 20 hours 50 minutes 23.1 seconds.
 Elapsed time:       0 days  1 hours 18 minutes 24.2 seconds.
 File lengths (MBytes):  RWF=   2288 Int=      0 D2E=      0 Chk=     43 Scr=      1
 Normal termination of Gaussian 16 at Tue Oct  7 10:00:21 2025.
