 Entering Gaussian System, Link 0=g16
 Input=MLEC0135.gjf
 Output=MLEC0135.log
 Initial command:
 /usr/local/g16/l1.exe "/dados_01/scratch/Gau-2153287.inp" -scrdir="/dados_01/scratch/"
 Entering Link 1 = /usr/local/g16/l1.exe PID=   2153290.
  
 Copyright (c) 1988-2017, Gaussian, Inc.  All Rights Reserved.
  
 This is part of the Gaussian(R) 16 program.  It is based on
 the Gaussian(R) 09 system (copyright 2009, Gaussian, Inc.),
 the Gaussian(R) 03 system (copyright 2003, Gaussian, Inc.),
 the Gaussian(R) 98 system (copyright 1998, Gaussian, Inc.),
 the Gaussian(R) 94 system (copyright 1995, Gaussian, Inc.),
 the Gaussian 92(TM) system (copyright 1992, Gaussian, Inc.),
 the Gaussian 90(TM) system (copyright 1990, Gaussian, Inc.),
 the Gaussian 88(TM) system (copyright 1988, Gaussian, Inc.),
 the Gaussian 86(TM) system (copyright 1986, Carnegie Mellon
 University), and the Gaussian 82(TM) system (copyright 1983,
 Carnegie Mellon University). Gaussian is a federally registered
 trademark of Gaussian, Inc.
  
 This software contains proprietary and confidential information,
 including trade secrets, belonging to Gaussian, Inc.
  
 This software is provided under written license and may be
 used, copied, transmitted, or stored only in accord with that
 written license.
  
 The following legend is applicable only to US Government
 contracts under FAR:
  
                    RESTRICTED RIGHTS LEGEND
  
 Use, reproduction and disclosure by the US Government is
 subject to restrictions as set forth in subparagraphs (a)
 and (c) of the Commercial Computer Software - Restricted
 Rights clause in FAR 52.227-19.
  
 Gaussian, Inc.
 340 Quinnipiac St., Bldg. 40, Wallingford CT 06492
  
  
 ---------------------------------------------------------------
 Warning -- This program may not be used in any manner that
 competes with the business of Gaussian, Inc. or will provide
 assistance to any competitor of Gaussian, Inc.  The licensee
 of this program is prohibited from giving any competitor of
 Gaussian, Inc. access to this program.  By using this program,
 the user acknowledges that Gaussian, Inc. is engaged in the
 business of creating and licensing software in the field of
 computational chemistry and represents and warrants to the
 licensee that it is not a competitor of Gaussian, Inc. and that
 it will not use this program in any manner prohibited above.
 ---------------------------------------------------------------
  

 Cite this work as:
 Gaussian 16, Revision B.01,
 M. J. Frisch, G. W. Trucks, H. B. Schlegel, G. E. Scuseria, 
 M. A. Robb, J. R. Cheeseman, G. Scalmani, V. Barone, 
 G. A. Petersson, H. Nakatsuji, X. Li, M. Caricato, A. V. Marenich, 
 J. Bloino, B. G. Janesko, R. Gomperts, B. Mennucci, H. P. Hratchian, 
 J. V. Ortiz, A. F. Izmaylov, J. L. Sonnenberg, D. Williams-Young, 
 F. Ding, F. Lipparini, F. Egidi, J. Goings, B. Peng, A. Petrone, 
 T. Henderson, D. Ranasinghe, V. G. Zakrzewski, J. Gao, N. Rega, 
 G. Zheng, W. Liang, M. Hada, M. Ehara, K. Toyota, R. Fukuda, 
 J. Hasegawa, M. Ishida, T. Nakajima, Y. Honda, O. Kitao, H. Nakai, 
 T. Vreven, K. Throssell, J. A. Montgomery, Jr., J. E. Peralta, 
 F. Ogliaro, M. J. Bearpark, J. J. Heyd, E. N. Brothers, K. N. Kudin, 
 V. N. Staroverov, T. A. Keith, R. Kobayashi, J. Normand, 
 K. Raghavachari, A. P. Rendell, J. C. Burant, S. S. Iyengar, 
 J. Tomasi, M. Cossi, J. M. Millam, M. Klene, C. Adamo, R. Cammi, 
 J. W. Ochterski, R. L. Martin, K. Morokuma, O. Farkas, 
 J. B. Foresman, and D. J. Fox, Gaussian, Inc., Wallingford CT, 2016.
 
 ******************************************
 Gaussian 16:  ES64L-G16RevB.01 20-Dec-2017
                20-Sep-2025 
 ******************************************
 %nprocs=16
 Will use up to   16 processors via shared memory.
 %mem=40GB
 %chk=MLEC0135.chk
 ----------------------------------------------------------------------
 # opt freq=noraman M08HX/6-311++G** scf=xqc Empiricaldispersion=pfd In
 t(Grid=ultraFine)
 ----------------------------------------------------------------------
 1/18=20,19=15,26=4,38=1/1,3;
 2/9=110,12=2,17=6,18=5,40=1/2;
 3/5=4,6=6,7=1111,11=2,25=1,30=1,71=1,74=-74,75=-5,124=11/1,2,3;
 4//1;
 5/5=2,8=3,13=1,38=5/2,8;
 6/7=2,8=2,9=2,10=2,28=1/1;
 7//1,2,3,16;
 1/18=20,19=15,26=4/3(2);
 2/9=110/2;
 99//99;
 2/9=110/2;
 3/5=4,6=6,7=1111,11=2,25=1,30=1,71=1,74=-74,75=-5,124=11/1,2,3;
 4/5=5,16=3,69=1/1;
 5/5=2,8=3,13=1,38=5/2,8;
 7//1,2,3,16;
 1/18=20,19=15,26=4/3(-5);
 2/9=110/2;
 6/7=2,8=2,9=2,10=2,19=2,28=1/1;
 99/9=1/99;
 --------
 MLEC0135
 --------
 Symbolic Z-matrix:
 Charge =  0 Multiplicity = 1
 O                     0.        0.9555   -0.0003 
 O                     2.2671    0.5567    0.0002 
 O                    -2.2672    0.5566   -0.0001 
 C                     0.6637   -1.2108   -0.0003 
 C                    -0.6635   -1.2107    0.0002 
 C                     1.1109    0.1764   -0.0001 
 C                    -1.1109    0.1763    0.0003 
 H                     1.3162   -2.0671   -0.0006 
 H                    -1.3159   -2.0671    0.0002 
 

 GradGradGradGradGradGradGradGradGradGradGradGradGradGradGradGradGradGrad
 Berny optimization.
 Initialization pass.
                           ----------------------------
                           !    Initial Parameters    !
                           ! (Angstroms and Degrees)  !
 --------------------------                            --------------------------
 ! Name  Definition              Value          Derivative Info.                !
 --------------------------------------------------------------------------------
 ! R1    R(1,6)                  1.3569         estimate D2E/DX2                !
 ! R2    R(1,7)                  1.3569         estimate D2E/DX2                !
 ! R3    R(2,6)                  1.2171         estimate D2E/DX2                !
 ! R4    R(3,7)                  1.2172         estimate D2E/DX2                !
 ! R5    R(4,5)                  1.3272         estimate D2E/DX2                !
 ! R6    R(4,6)                  1.4575         estimate D2E/DX2                !
 ! R7    R(4,8)                  1.0766         estimate D2E/DX2                !
 ! R8    R(5,7)                  1.4574         estimate D2E/DX2                !
 ! R9    R(5,9)                  1.0766         estimate D2E/DX2                !
 ! A1    A(6,1,7)              109.9108         estimate D2E/DX2                !
 ! A2    A(5,4,6)              107.8638         estimate D2E/DX2                !
 ! A3    A(5,4,8)              127.3117         estimate D2E/DX2                !
 ! A4    A(6,4,8)              124.8245         estimate D2E/DX2                !
 ! A5    A(4,5,7)              107.8823         estimate D2E/DX2                !
 ! A6    A(4,5,9)              127.2956         estimate D2E/DX2                !
 ! A7    A(7,5,9)              124.8221         estimate D2E/DX2                !
 ! A8    A(1,6,2)              126.7499         estimate D2E/DX2                !
 ! A9    A(1,6,4)              107.1748         estimate D2E/DX2                !
 ! A10   A(2,6,4)              126.0753         estimate D2E/DX2                !
 ! A11   A(1,7,3)              126.7479         estimate D2E/DX2                !
 ! A12   A(1,7,5)              107.1684         estimate D2E/DX2                !
 ! A13   A(3,7,5)              126.0837         estimate D2E/DX2                !
 ! D1    D(7,1,6,2)           -179.9587         estimate D2E/DX2                !
 ! D2    D(7,1,6,4)              0.0408         estimate D2E/DX2                !
 ! D3    D(6,1,7,3)           -179.9757         estimate D2E/DX2                !
 ! D4    D(6,1,7,5)             -0.0301         estimate D2E/DX2                !
 ! D5    D(6,4,5,7)              0.0181         estimate D2E/DX2                !
 ! D6    D(6,4,5,9)            179.9988         estimate D2E/DX2                !
 ! D7    D(8,4,5,7)           -179.9935         estimate D2E/DX2                !
 ! D8    D(8,4,5,9)             -0.0128         estimate D2E/DX2                !
 ! D9    D(5,4,6,1)             -0.0365         estimate D2E/DX2                !
 ! D10   D(5,4,6,2)            179.963          estimate D2E/DX2                !
 ! D11   D(8,4,6,1)            179.9748         estimate D2E/DX2                !
 ! D12   D(8,4,6,2)             -0.0257         estimate D2E/DX2                !
 ! D13   D(4,5,7,1)              0.0063         estimate D2E/DX2                !
 ! D14   D(4,5,7,3)            179.9524         estimate D2E/DX2                !
 ! D15   D(9,5,7,1)           -179.975          estimate D2E/DX2                !
 ! D16   D(9,5,7,3)             -0.0289         estimate D2E/DX2                !
 --------------------------------------------------------------------------------
 Trust Radius=3.00D-01 FncErr=1.00D-07 GrdErr=1.00D-06 EigMax=2.50D+02 EigMin=1.00D-04
 Number of steps in this run=     48 maximum allowed number of steps=    100.
 GradGradGradGradGradGradGradGradGradGradGradGradGradGradGradGradGradGrad

                          Input orientation:                          
 ---------------------------------------------------------------------
 Center     Atomic      Atomic             Coordinates (Angstroms)
 Number     Number       Type             X           Y           Z
 ---------------------------------------------------------------------
      1          8           0        0.000000    0.955500   -0.000300
      2          8           0        2.267100    0.556700    0.000200
      3          8           0       -2.267200    0.556600   -0.000100
      4          6           0        0.663700   -1.210800   -0.000300
      5          6           0       -0.663500   -1.210700    0.000200
      6          6           0        1.110900    0.176400   -0.000100
      7          6           0       -1.110900    0.176300    0.000300
      8          1           0        1.316200   -2.067100   -0.000600
      9          1           0       -1.315900   -2.067100    0.000200
 ---------------------------------------------------------------------
                    Distance matrix (angstroms):
                    1          2          3          4          5
     1  O    0.000000
     2  O    2.301909   0.000000
     3  O    2.302025   4.534300   0.000000
     4  C    2.265690   2.386409   3.422554   0.000000
     5  C    2.265536   3.422297   2.386462   1.327200   0.000000
     6  C    1.356870   1.217139   3.399428   1.457502   2.252230
     7  C    1.356927   3.399351   1.217234   2.252388   1.457373
     8  H    3.296740   2.790795   4.441234   1.076571   2.156996
     9  H    3.296620   4.440970   2.790837   2.156865   1.076590
                    6          7          8          9
     6  C    0.000000
     7  C    2.221800   0.000000
     8  H    2.252874   3.305096   0.000000
     9  H    3.304943   2.252747   2.632100   0.000000
 Stoichiometry    C4H2O3
 Framework group  C1[X(C4H2O3)]
 Deg. of freedom    21
 Full point group                 C1      NOp   1
 Largest Abelian subgroup         C1      NOp   1
 Largest concise Abelian subgroup C1      NOp   1
                         Standard orientation:                         
 ---------------------------------------------------------------------
 Center     Atomic      Atomic             Coordinates (Angstroms)
 Number     Number       Type             X           Y           Z
 ---------------------------------------------------------------------
      1          8           0       -0.000020   -0.955432    0.000272
      2          8           0        2.267082   -0.556647   -0.000228
      3          8           0       -2.267218   -0.556517    0.000072
      4          6           0        0.663694    1.210864    0.000272
      5          6           0       -0.663506    1.210772   -0.000228
      6          6           0        1.110885   -0.176339    0.000072
      7          6           0       -1.110915   -0.176225   -0.000328
      8          1           0        1.316199    2.067159    0.000572
      9          1           0       -1.315901    2.067177   -0.000228
 ---------------------------------------------------------------------
 Rotational constants (GHZ):           7.3365557           2.4284814           1.8245389
 Standard basis: 6-311++G(d,p) (5D, 7F)
 There are   175 symmetry adapted cartesian basis functions of A   symmetry.
 There are   168 symmetry adapted basis functions of A   symmetry.
   168 basis functions,   270 primitive gaussians,   175 cartesian basis functions
    25 alpha electrons       25 beta electrons
       nuclear repulsion energy       276.8460404320 Hartrees.
 NAtoms=    9 NActive=    9 NUniq=    9 SFac= 1.00D+00 NAtFMM=   60 NAOKFM=F Big=F
 Integral buffers will be    131072 words long.
 Raffenetti 2 integral format.
 Two-electron integral symmetry is turned on.
 R6APFD:  NTU= -4 IXU= 1 FactS= 1.050
 Nuclear repulsion after empirical dispersion term =      276.8417830342 Hartrees.
 One-electron integrals computed using PRISM.
 NBasis=   168 RedAO= T EigKep=  8.22D-06  NBF=   168
 NBsUse=   168 1.00D-06 EigRej= -1.00D+00 NBFU=   168
 ExpMin= 3.60D-02 ExpMax= 8.59D+03 ExpMxC= 1.30D+03 IAcc=3 IRadAn=         5 AccDes= 0.00D+00
 Harris functional with IExCor= 1009 and IRadAn=       5 diagonalized for initial guess.
 HarFok:  IExCor= 1009 AccDes= 0.00D+00 IRadAn=         5 IDoV= 1 UseB2=F ITyADJ=14
 ICtDFT=  3500011 ScaDFX=  1.000000  1.000000  1.000000  1.000000
 FoFCou: FMM=F IPFlag=           0 FMFlag=      100000 FMFlg1=           0
         NFxFlg=           0 DoJE=T BraDBF=F KetDBF=T FulRan=T
         wScrn=  0.000000 ICntrl=       500 IOpCl=  0 I1Cent=   200000004 NGrid=           0
         NMat0=    1 NMatS0=      1 NMatT0=    0 NMatD0=    1 NMtDS0=    0 NMtDT0=    0
 Petite list used in FoFCou.
 Keep R1 ints in memory in canonical form, NReq=116803935.
 Requested convergence on RMS density matrix=1.00D-08 within  32 cycles.
 Requested convergence on MAX density matrix=1.00D-06.
 Requested convergence on             energy=1.00D-06.
 No special actions if energy rises.
 SCF Done:  E(RM08HX) =  -379.251698693     A.U. after   13 cycles
            NFock= 13  Conv=0.33D-08     -V/T= 2.0034
 QCSCF skips out because SCF is already converged.

 **********************************************************************

            Population analysis using the SCF Density.

 **********************************************************************

 Orbital symmetries:
       Occupied  (A) (A) (A) (A) (A) (A) (A) (A) (A) (A) (A) (A)
                 (A) (A) (A) (A) (A) (A) (A) (A) (A) (A) (A) (A)
                 (A)
       Virtual   (A) (A) (A) (A) (A) (A) (A) (A) (A) (A) (A) (A)
                 (A) (A) (A) (A) (A) (A) (A) (A) (A) (A) (A) (A)
                 (A) (A) (A) (A) (A) (A) (A) (A) (A) (A) (A) (A)
                 (A) (A) (A) (A) (A) (A) (A) (A) (A) (A) (A) (A)
                 (A) (A) (A) (A) (A) (A) (A) (A) (A) (A) (A) (A)
                 (A) (A) (A) (A) (A) (A) (A) (A) (A) (A) (A) (A)
                 (A) (A) (A) (A) (A) (A) (A) (A) (A) (A) (A) (A)
                 (A) (A) (A) (A) (A) (A) (A) (A) (A) (A) (A) (A)
                 (A) (A) (A) (A) (A) (A) (A) (A) (A) (A) (A) (A)
                 (A) (A) (A) (A) (A) (A) (A) (A) (A) (A) (A) (A)
                 (A) (A) (A) (A) (A) (A) (A) (A) (A) (A) (A) (A)
                 (A) (A) (A) (A) (A) (A) (A) (A) (A) (A) (A)
 The electronic state is 1-A.
 Alpha  occ. eigenvalues --  -19.71540 -19.65109 -19.65107 -10.71528 -10.71526
 Alpha  occ. eigenvalues --  -10.60329 -10.60210  -1.31706  -1.21663  -1.18380
 Alpha  occ. eigenvalues --   -0.98434  -0.83696  -0.75889  -0.71363  -0.62155
 Alpha  occ. eigenvalues --   -0.62022  -0.58130  -0.56038  -0.54023  -0.52134
 Alpha  occ. eigenvalues --   -0.50921  -0.43702  -0.41395  -0.40112  -0.39378
 Alpha virt. eigenvalues --   -0.10392  -0.03428  -0.00722  -0.00152   0.01141
 Alpha virt. eigenvalues --    0.03524   0.03623   0.03800   0.03849   0.04363
 Alpha virt. eigenvalues --    0.06123   0.08163   0.08277   0.08287   0.09796
 Alpha virt. eigenvalues --    0.10259   0.11616   0.11968   0.11997   0.12967
 Alpha virt. eigenvalues --    0.17795   0.20817   0.20964   0.21119   0.22929
 Alpha virt. eigenvalues --    0.24009   0.25064   0.25903   0.27078   0.28686
 Alpha virt. eigenvalues --    0.29313   0.29913   0.29986   0.31813   0.33370
 Alpha virt. eigenvalues --    0.33840   0.34737   0.37479   0.43455   0.45754
 Alpha virt. eigenvalues --    0.47702   0.50327   0.51893   0.52262   0.55996
 Alpha virt. eigenvalues --    0.57109   0.60643   0.62054   0.64624   0.69844
 Alpha virt. eigenvalues --    0.71283   0.77271   0.77738   0.79337   0.80581
 Alpha virt. eigenvalues --    0.84229   0.88217   0.88261   0.94550   1.00154
 Alpha virt. eigenvalues --    1.01076   1.05192   1.09509   1.10347   1.17130
 Alpha virt. eigenvalues --    1.17438   1.18650   1.18770   1.19306   1.20680
 Alpha virt. eigenvalues --    1.23522   1.29352   1.34602   1.35630   1.40117
 Alpha virt. eigenvalues --    1.47840   1.54028   1.57772   1.59321   1.62186
 Alpha virt. eigenvalues --    1.69736   1.71699   1.74480   1.76166   1.81315
 Alpha virt. eigenvalues --    1.82123   1.91457   1.91828   1.94066   1.99511
 Alpha virt. eigenvalues --    2.00247   2.16542   2.18759   2.18835   2.35628
 Alpha virt. eigenvalues --    2.50159   2.59852   2.62598   2.65711   2.65862
 Alpha virt. eigenvalues --    2.68125   2.75497   2.85349   2.89974   2.91445
 Alpha virt. eigenvalues --    2.94379   2.98850   3.03311   3.05167   3.15103
 Alpha virt. eigenvalues --    3.16706   3.16783   3.23587   3.24553   3.40331
 Alpha virt. eigenvalues --    3.40524   3.41914   3.49905   3.59419   3.61586
 Alpha virt. eigenvalues --    3.69266   3.73184   4.03123   4.07911   4.08020
 Alpha virt. eigenvalues --    4.16553   4.39554   5.03059   5.08278   5.12721
 Alpha virt. eigenvalues --    5.20954   5.26058   5.49353   5.72578   5.81386
 Alpha virt. eigenvalues --    6.02062  23.73297  23.88353  23.88835  24.29619
 Alpha virt. eigenvalues --   49.85413  49.97138  50.04758
          Condensed to atoms (all electrons):
               1          2          3          4          5          6
     1  O    8.235834  -0.046887  -0.046882  -0.133011  -0.133329   0.098606
     2  O   -0.046887   7.982612   0.001059  -0.129088  -0.007043   0.437229
     3  O   -0.046882   0.001059   7.982540  -0.007097  -0.129043   0.018776
     4  C   -0.133011  -0.129088  -0.007097   9.149950  -3.380032  -1.514631
     5  C   -0.133329  -0.007043  -0.129043  -3.380032   9.151404   1.526911
     6  C    0.098606   0.437229   0.018776  -1.514631   1.526911   6.255979
     7  C    0.098726   0.018753   0.437287   1.527216  -1.515523  -0.544505
     8  H   -0.010213  -0.016893   0.002870   0.512382  -0.176970  -0.103718
     9  H   -0.010227   0.002872  -0.016887  -0.176939   0.512387   0.053528
               7          8          9
     1  O    0.098726  -0.010213  -0.010227
     2  O    0.018753  -0.016893   0.002872
     3  O    0.437287   0.002870  -0.016887
     4  C    1.527216   0.512382  -0.176939
     5  C   -1.515523  -0.176970   0.512387
     6  C   -0.544505  -0.103718   0.053528
     7  C    6.256525   0.053544  -0.103737
     8  H    0.053544   0.394662  -0.001588
     9  H   -0.103737  -0.001588   0.394687
 Mulliken charges:
               1
     1  O   -0.052617
     2  O   -0.242615
     3  O   -0.242624
     4  C    0.151250
     5  C    0.151238
     6  C   -0.228173
     7  C   -0.228286
     8  H    0.345924
     9  H    0.345903
 Sum of Mulliken charges =  -0.00000
 Mulliken charges with hydrogens summed into heavy atoms:
               1
     1  O   -0.052617
     2  O   -0.242615
     3  O   -0.242624
     4  C    0.497174
     5  C    0.497141
     6  C   -0.228173
     7  C   -0.228286
 Electronic spatial extent (au):  <R**2>=            609.1205
 Charge=             -0.0000 electrons
 Dipole moment (field-independent basis, Debye):
    X=              0.0007    Y=              4.1557    Z=             -0.0002  Tot=              4.1557
 Quadrupole moment (field-independent basis, Debye-Ang):
   XX=            -50.4973   YY=            -36.5027   ZZ=            -37.8954
   XY=              0.0013   XZ=              0.0030   YZ=              0.0013
 Traceless Quadrupole moment (field-independent basis, Debye-Ang):
   XX=             -8.8655   YY=              5.1291   ZZ=              3.7364
   XY=              0.0013   XZ=              0.0030   YZ=              0.0013
 Octapole moment (field-independent basis, Debye-Ang**2):
  XXX=              0.0056  YYY=              7.7328  ZZZ=              0.0005  XYY=              0.0021
  XXY=             12.3997  XXZ=              0.0031  XZZ=              0.0003  YZZ=             -4.0253
  YYZ=              0.0017  XYZ=              0.0002
 Hexadecapole moment (field-independent basis, Debye-Ang**3):
 XXXX=           -593.9709 YYYY=           -193.9472 ZZZZ=            -36.1549 XXXY=              0.0061
 XXXZ=              0.0045 YYYX=              0.0047 YYYZ=              0.0048 ZZZX=             -0.0025
 ZZZY=              0.0003 XXYY=           -114.0657 XXZZ=            -87.2856 YYZZ=            -44.3652
 XXYZ=              0.0007 YYXZ=              0.0047 ZZXY=             -0.0003
 N-N= 2.768417830342D+02 E-N=-1.442238391271D+03  KE= 3.779756164957D+02
 R6APFD:  NTU= -4 IXU= 1 FactS= 1.050
 Calling FoFJK, ICntrl=      2127 FMM=F ISym2X=0 I1Cent= 0 IOpClX= 0 NMat=1 NMatS=1 NMatT=0.
 ***** Axes restored to original set *****
 -------------------------------------------------------------------
 Center     Atomic                   Forces (Hartrees/Bohr)
 Number     Number              X              Y              Z
 -------------------------------------------------------------------
      1        8          -0.000031990    0.034071388    0.000048421
      2        8          -0.051552771   -0.002518325   -0.000017741
      3        8           0.051692171   -0.002577433    0.000054286
      4        6          -0.010204147   -0.020270246    0.000014953
      5        6           0.010171181   -0.020454106    0.000016152
      6        6           0.061806762    0.007059424    0.000000909
      7        6          -0.061875496    0.007190935   -0.000123728
      8        1           0.006572647   -0.001257274   -0.000002018
      9        1          -0.006578357   -0.001244364    0.000008766
 -------------------------------------------------------------------
 Cartesian Forces:  Max     0.061875496 RMS     0.023867123

 GradGradGradGradGradGradGradGradGradGradGradGradGradGradGradGradGradGrad
 Berny optimization.
 FormGI is forming the generalized inverse of G from B-inverse, IUseBI=4.
 Internal  Forces:  Max     0.049909789 RMS     0.014213155
 Search for a local minimum.
 Step number   1 out of a maximum of   48
 All quantities printed in internal units (Hartrees-Bohrs-Radians)
 Mixed Optimization -- RFO/linear search
 Second derivative matrix not updated -- first step.
 ITU=  0
     Eigenvalues ---    0.01591   0.01628   0.01802   0.02057   0.02236
     Eigenvalues ---    0.02495   0.16000   0.16000   0.22758   0.24765
     Eigenvalues ---    0.25000   0.25000   0.34800   0.36409   0.36412
     Eigenvalues ---    0.36986   0.49339   0.51975   0.58436   0.96619
     Eigenvalues ---    0.96662
 RFO step:  Lambda=-1.36307340D-02 EMin= 1.59145945D-02
 Linear search not attempted -- first point.
 Iteration  1 RMS(Cart)=  0.04132873 RMS(Int)=  0.00103582
 Iteration  2 RMS(Cart)=  0.00117606 RMS(Int)=  0.00003125
 Iteration  3 RMS(Cart)=  0.00000117 RMS(Int)=  0.00003123
 Iteration  4 RMS(Cart)=  0.00000000 RMS(Int)=  0.00003123
 Variable       Old X    -DE/DX   Delta X   Delta X   Delta X     New X
                                 (Linear)    (Quad)   (Total)
    R1        2.56411   0.01064   0.00000   0.01934   0.01930   2.58341
    R2        2.56422   0.01061   0.00000   0.01929   0.01926   2.58348
    R3        2.30006  -0.04976   0.00000  -0.05076  -0.05076   2.24930
    R4        2.30024  -0.04991   0.00000  -0.05094  -0.05094   2.24930
    R5        2.50804   0.00558   0.00000   0.00909   0.00913   2.51718
    R6        2.75428   0.02337   0.00000   0.06047   0.06048   2.81476
    R7        2.03443   0.00498   0.00000   0.01319   0.01319   2.04762
    R8        2.75404   0.02342   0.00000   0.06059   0.06060   2.81464
    R9        2.03446   0.00498   0.00000   0.01317   0.01317   2.04764
    A1        1.91831  -0.00818   0.00000  -0.03040  -0.03049   1.88781
    A2        1.88258  -0.00274   0.00000  -0.01116  -0.01110   1.87148
    A3        2.22201   0.00591   0.00000   0.03174   0.03171   2.25372
    A4        2.17860  -0.00317   0.00000  -0.02058  -0.02061   2.15799
    A5        1.88290  -0.00282   0.00000  -0.01149  -0.01142   1.87148
    A6        2.22173   0.00597   0.00000   0.03198   0.03195   2.25368
    A7        2.17856  -0.00314   0.00000  -0.02050  -0.02053   2.15803
    A8        2.21220  -0.01920   0.00000  -0.07306  -0.07305   2.13916
    A9        1.87055   0.00686   0.00000   0.02645   0.02643   1.89699
   A10        2.20043   0.01234   0.00000   0.04661   0.04661   2.24704
   A11        2.21217  -0.01920   0.00000  -0.07307  -0.07307   2.13910
   A12        1.87044   0.00689   0.00000   0.02660   0.02658   1.89702
   A13        2.20058   0.01231   0.00000   0.04648   0.04648   2.24706
    D1       -3.14087  -0.00001   0.00000  -0.00035  -0.00036  -3.14123
    D2        0.00071  -0.00003   0.00000  -0.00080  -0.00078  -0.00006
    D3       -3.14117  -0.00004   0.00000  -0.00081  -0.00073   3.14128
    D4       -0.00053   0.00003   0.00000   0.00088   0.00086   0.00034
    D5        0.00032   0.00000   0.00000   0.00014   0.00014   0.00046
    D6        3.14157   0.00000   0.00000   0.00022   0.00023  -3.14138
    D7       -3.14148   0.00000   0.00000   0.00008   0.00007  -3.14141
    D8       -0.00022   0.00000   0.00000   0.00016   0.00016  -0.00006
    D9       -0.00064   0.00001   0.00000   0.00038   0.00037  -0.00027
   D10        3.14095  -0.00000   0.00000  -0.00007  -0.00008   3.14087
   D11        3.14115   0.00001   0.00000   0.00043   0.00043   3.14158
   D12       -0.00045  -0.00000   0.00000  -0.00002  -0.00002  -0.00047
   D13        0.00011  -0.00002   0.00000  -0.00062  -0.00063  -0.00052
   D14        3.14076   0.00002   0.00000   0.00097   0.00102  -3.14141
   D15       -3.14116  -0.00002   0.00000  -0.00071  -0.00072   3.14131
   D16       -0.00050   0.00002   0.00000   0.00089   0.00092   0.00041
         Item               Value     Threshold  Converged?
 Maximum Force            0.049910     0.000450     NO 
 RMS     Force            0.014213     0.000300     NO 
 Maximum Displacement     0.101252     0.001800     NO 
 RMS     Displacement     0.041094     0.001200     NO 
 Predicted change in Energy=-7.048115D-03
 GradGradGradGradGradGradGradGradGradGradGradGradGradGradGradGradGradGrad

                          Input orientation:                          
 ---------------------------------------------------------------------
 Center     Atomic      Atomic             Coordinates (Angstroms)
 Number     Number       Type             X           Y           Z
 ---------------------------------------------------------------------
      1          8           0        0.000003    0.975574   -0.000075
      2          8           0        2.214484    0.610280    0.000221
      3          8           0       -2.214450    0.610111    0.000189
      4          6           0        0.666074   -1.249038   -0.000332
      5          6           0       -0.665958   -1.249075    0.000064
      6          6           0        1.107182    0.173656   -0.000203
      7          6           0       -1.107128    0.173531   -0.000193
      8          1           0        1.349890   -2.089563   -0.000461
      9          1           0       -1.349697   -2.089675    0.000291
 ---------------------------------------------------------------------
                    Distance matrix (angstroms):
                    1          2          3          4          5
     1  O    0.000000
     2  O    2.244408   0.000000
     3  O    2.244408   4.428935   0.000000
     4  C    2.322186   2.419636   3.428390   0.000000
     5  C    2.322190   3.428433   2.419587   1.332033   0.000000
     6  C    1.367084   1.190277   3.350184   1.489508   2.273365
     7  C    1.367118   3.350203   1.190279   2.273313   1.489443
     8  H    3.349218   2.834904   4.471327   1.083553   2.184048
     9  H    3.349245   4.471370   2.834897   2.184034   1.083562
                    6          7          8          9
     6  C    0.000000
     7  C    2.214310   0.000000
     8  H    2.276196   3.340439   0.000000
     9  H    3.340497   2.276168   2.699587   0.000000
 Stoichiometry    C4H2O3
 Framework group  C1[X(C4H2O3)]
 Deg. of freedom    21
 Full point group                 C1      NOp   1
 Largest Abelian subgroup         C1      NOp   1
 Largest concise Abelian subgroup C1      NOp   1
                         Standard orientation:                         
 ---------------------------------------------------------------------
 Center     Atomic      Atomic             Coordinates (Angstroms)
 Number     Number       Type             X           Y           Z
 ---------------------------------------------------------------------
      1          8           0        0.000022   -0.965916    0.000045
      2          8           0        2.214485   -0.600509   -0.000250
      3          8           0       -2.214450   -0.600565   -0.000218
      4          6           0        0.665980    1.258730    0.000303
      5          6           0       -0.666053    1.258700   -0.000094
      6          6           0        1.107160   -0.163941    0.000174
      7          6           0       -1.107150   -0.163929    0.000164
      8          1           0        1.349753    2.099290    0.000431
      9          1           0       -1.349834    2.099265   -0.000320
 ---------------------------------------------------------------------
 Rotational constants (GHZ):           6.8445606           2.5191975           1.8414402
 Standard basis: 6-311++G(d,p) (5D, 7F)
 There are   175 symmetry adapted cartesian basis functions of A   symmetry.
 There are   168 symmetry adapted basis functions of A   symmetry.
   168 basis functions,   270 primitive gaussians,   175 cartesian basis functions
    25 alpha electrons       25 beta electrons
       nuclear repulsion energy       276.8267223949 Hartrees.
 NAtoms=    9 NActive=    9 NUniq=    9 SFac= 1.00D+00 NAtFMM=   60 NAOKFM=F Big=F
 Integral buffers will be    131072 words long.
 Raffenetti 2 integral format.
 Two-electron integral symmetry is turned on.
 R6APFD:  NTU= -4 IXU= 1 FactS= 1.050
 Nuclear repulsion after empirical dispersion term =      276.8225856584 Hartrees.
 One-electron integrals computed using PRISM.
 NBasis=   168 RedAO= T EigKep=  8.60D-06  NBF=   168
 NBsUse=   168 1.00D-06 EigRej= -1.00D+00 NBFU=   168
 Initial guess from the checkpoint file:  "MLEC0135.chk"
 B after Tr=    -0.000000   -0.000000    0.000000
         Rot=    1.000000   -0.000040    0.000008   -0.000027 Ang=  -0.01 deg.
 ExpMin= 3.60D-02 ExpMax= 8.59D+03 ExpMxC= 1.30D+03 IAcc=3 IRadAn=         5 AccDes= 0.00D+00
 Harris functional with IExCor= 1009 and IRadAn=       5 diagonalized for initial guess.
 HarFok:  IExCor= 1009 AccDes= 0.00D+00 IRadAn=         5 IDoV= 1 UseB2=F ITyADJ=14
 ICtDFT=  3500011 ScaDFX=  1.000000  1.000000  1.000000  1.000000
 FoFCou: FMM=F IPFlag=           0 FMFlag=      100000 FMFlg1=           0
         NFxFlg=           0 DoJE=T BraDBF=F KetDBF=T FulRan=T
         wScrn=  0.000000 ICntrl=       500 IOpCl=  0 I1Cent=   200000004 NGrid=           0
         NMat0=    1 NMatS0=      1 NMatT0=    0 NMatD0=    1 NMtDS0=    0 NMtDT0=    0
 Petite list used in FoFCou.
 Keep R1 ints in memory in canonical form, NReq=116803935.
 Requested convergence on RMS density matrix=1.00D-08 within  32 cycles.
 Requested convergence on MAX density matrix=1.00D-06.
 Requested convergence on             energy=1.00D-06.
 No special actions if energy rises.
 SCF Done:  E(RM08HX) =  -379.259067216     A.U. after   12 cycles
            NFock= 12  Conv=0.50D-08     -V/T= 2.0033
 QCSCF skips out because SCF is already converged.
 R6APFD:  NTU= -4 IXU= 1 FactS= 1.050
 Calling FoFJK, ICntrl=      2127 FMM=F ISym2X=0 I1Cent= 0 IOpClX= 0 NMat=1 NMatS=1 NMatT=0.
 ***** Axes restored to original set *****
 -------------------------------------------------------------------
 Center     Atomic                   Forces (Hartrees/Bohr)
 Number     Number              X              Y              Z
 -------------------------------------------------------------------
      1        8          -0.000007370    0.000114987   -0.000041116
      2        8          -0.006016978   -0.002424224   -0.000022064
      3        8           0.006017793   -0.002426125   -0.000037466
      4        6          -0.009785769   -0.003316597    0.000001021
      5        6           0.009801917   -0.003350096   -0.000047331
      6        6           0.022682521    0.004144921    0.000037994
      7        6          -0.022693217    0.004186385    0.000104982
      8        1           0.001904653    0.001531672    0.000005811
      9        1          -0.001903550    0.001539078   -0.000001832
 -------------------------------------------------------------------
 Cartesian Forces:  Max     0.022693217 RMS     0.007134749

 GradGradGradGradGradGradGradGradGradGradGradGradGradGradGradGradGradGrad
 Berny optimization.
 Using GEDIIS/GDIIS optimizer.
 FormGI is forming the generalized inverse of G from B-inverse, IUseBI=4.
 Internal  Forces:  Max     0.007910274 RMS     0.003426032
 Search for a local minimum.
 Step number   2 out of a maximum of   48
 All quantities printed in internal units (Hartrees-Bohrs-Radians)
 Mixed Optimization -- RFO/linear search
 Update second derivatives using D2CorX and points    1    2
 DE= -7.37D-03 DEPred=-7.05D-03 R= 1.05D+00
 TightC=F SS=  1.41D+00  RLast= 1.85D-01 DXNew= 5.0454D-01 5.5441D-01
 Trust test= 1.05D+00 RLast= 1.85D-01 DXMaxT set to 5.05D-01
 ITU=  1  0
 Use linear search instead of GDIIS.
     Eigenvalues ---    0.01559   0.01596   0.01810   0.02041   0.02255
     Eigenvalues ---    0.02521   0.15248   0.16000   0.22765   0.23057
     Eigenvalues ---    0.25000   0.30385   0.34774   0.36132   0.36411
     Eigenvalues ---    0.36564   0.48333   0.51910   0.58242   0.91160
     Eigenvalues ---    0.96641
 RFO step:  Lambda=-1.38809601D-03 EMin= 1.55869561D-02
 Quartic linear search produced a step of  0.06593.
 Iteration  1 RMS(Cart)=  0.01071396 RMS(Int)=  0.00009346
 Iteration  2 RMS(Cart)=  0.00010585 RMS(Int)=  0.00001217
 Iteration  3 RMS(Cart)=  0.00000001 RMS(Int)=  0.00001217
 Variable       Old X    -DE/DX   Delta X   Delta X   Delta X     New X
                                 (Linear)    (Quad)   (Total)
    R1        2.58341   0.00791   0.00127   0.01742   0.01871   2.60212
    R2        2.58348   0.00790   0.00127   0.01740   0.01868   2.60216
    R3        2.24930  -0.00649  -0.00335  -0.00893  -0.01228   2.23702
    R4        2.24930  -0.00649  -0.00336  -0.00894  -0.01230   2.23700
    R5        2.51718  -0.00094   0.00060  -0.00254  -0.00196   2.51522
    R6        2.81476   0.00376   0.00399   0.01204   0.01602   2.83079
    R7        2.04762   0.00001   0.00087   0.00045   0.00132   2.04894
    R8        2.81464   0.00379   0.00400   0.01213   0.01612   2.83076
    R9        2.04764   0.00001   0.00087   0.00043   0.00130   2.04894
    A1        1.88781   0.00522  -0.00201   0.02645   0.02448   1.91229
    A2        1.87148   0.00361  -0.00073   0.01184   0.01108   1.88256
    A3        2.25372   0.00070   0.00209   0.01121   0.01332   2.26704
    A4        2.15799  -0.00431  -0.00136  -0.02305  -0.02440   2.13359
    A5        1.87148   0.00361  -0.00075   0.01185   0.01107   1.88254
    A6        2.25368   0.00070   0.00211   0.01124   0.01336   2.26704
    A7        2.15803  -0.00431  -0.00135  -0.02308  -0.02442   2.13360
    A8        2.13916   0.00316  -0.00482   0.01105   0.00623   2.14539
    A9        1.89699  -0.00621   0.00174  -0.02505  -0.02330   1.87369
   A10        2.24704   0.00305   0.00307   0.01400   0.01707   2.26411
   A11        2.13910   0.00317  -0.00482   0.01108   0.00626   2.14536
   A12        1.89702  -0.00623   0.00175  -0.02509  -0.02333   1.87370
   A13        2.24706   0.00306   0.00306   0.01401   0.01707   2.26413
    D1       -3.14123  -0.00000  -0.00002  -0.00027  -0.00028  -3.14151
    D2       -0.00006   0.00001  -0.00005   0.00097   0.00092   0.00086
    D3        3.14128   0.00002  -0.00005   0.00110   0.00103  -3.14087
    D4        0.00034  -0.00002   0.00006  -0.00141  -0.00135  -0.00101
    D5        0.00046  -0.00001   0.00001  -0.00071  -0.00071  -0.00026
    D6       -3.14138  -0.00001   0.00002  -0.00041  -0.00040   3.14140
    D7       -3.14141  -0.00001   0.00000  -0.00025  -0.00024   3.14153
    D8       -0.00006   0.00000   0.00001   0.00005   0.00007   0.00001
    D9       -0.00027   0.00000   0.00002  -0.00011  -0.00008  -0.00035
   D10        3.14087   0.00002  -0.00001   0.00122   0.00122  -3.14110
   D11        3.14158  -0.00001   0.00003  -0.00055  -0.00051   3.14106
   D12       -0.00047   0.00001  -0.00000   0.00079   0.00079   0.00032
   D13       -0.00052   0.00003  -0.00004   0.00135   0.00130   0.00078
   D14       -3.14141  -0.00002   0.00007  -0.00135  -0.00130   3.14048
   D15        3.14131   0.00002  -0.00005   0.00106   0.00101  -3.14087
   D16        0.00041  -0.00003   0.00006  -0.00165  -0.00159  -0.00117
         Item               Value     Threshold  Converged?
 Maximum Force            0.007910     0.000450     NO 
 RMS     Force            0.003426     0.000300     NO 
 Maximum Displacement     0.033681     0.001800     NO 
 RMS     Displacement     0.010730     0.001200     NO 
 Predicted change in Energy=-7.309997D-04
 GradGradGradGradGradGradGradGradGradGradGradGradGradGradGradGradGradGrad

                          Input orientation:                          
 ---------------------------------------------------------------------
 Center     Atomic      Atomic             Coordinates (Angstroms)
 Number     Number       Type             X           Y           Z
 ---------------------------------------------------------------------
      1          8           0       -0.000003    0.967075   -0.000172
      2          8           0        2.223625    0.613887   -0.000343
      3          8           0       -2.223599    0.613730   -0.000163
      4          6           0        0.665564   -1.252746   -0.000043
      5          6           0       -0.665431   -1.252799    0.000036
      6          6           0        1.124991    0.173049    0.000117
      7          6           0       -1.124951    0.172951    0.000615
      8          1           0        1.360972   -2.084619   -0.000357
      9          1           0       -1.360769   -2.084728   -0.000190
 ---------------------------------------------------------------------
                    Distance matrix (angstroms):
                    1          2          3          4          5
     1  O    0.000000
     2  O    2.251503   0.000000
     3  O    2.251496   4.447224   0.000000
     4  C    2.317453   2.431435   3.439621   0.000000
     5  C    2.317464   3.439647   2.431422   1.330995   0.000000
     6  C    1.376985   1.183780   3.377462   1.497987   2.288811
     7  C    1.377005   3.377483   1.183770   2.288790   1.497973
     8  H    3.341421   2.833038   4.486673   1.084253   2.190488
     9  H    3.341435   4.486692   2.833046   2.190483   1.084251
                    6          7          8          9
     6  C    0.000000
     7  C    2.249942   0.000000
     8  H    2.269968   3.358041   0.000000
     9  H    3.358059   2.269962   2.721741   0.000000
 Stoichiometry    C4H2O3
 Framework group  C1[X(C4H2O3)]
 Deg. of freedom    21
 Full point group                 C1      NOp   1
 Largest Abelian subgroup         C1      NOp   1
 Largest concise Abelian subgroup C1      NOp   1
                         Standard orientation:                         
 ---------------------------------------------------------------------
 Center     Atomic      Atomic             Coordinates (Angstroms)
 Number     Number       Type             X           Y           Z
 ---------------------------------------------------------------------
      1          8           0        0.000008   -0.958457    0.000140
      2          8           0        2.223622   -0.605177    0.000310
      3          8           0       -2.223602   -0.605202    0.000130
      4          6           0        0.665484    1.261392    0.000010
      5          6           0       -0.665512    1.261390   -0.000068
      6          6           0        1.124969   -0.164385   -0.000150
      7          6           0       -1.124973   -0.164379   -0.000647
      8          1           0        1.360858    2.093293    0.000324
      9          1           0       -1.360883    2.093291    0.000158
 ---------------------------------------------------------------------
 Rotational constants (GHZ):           6.8384752           2.4906831           1.8257248
 Standard basis: 6-311++G(d,p) (5D, 7F)
 There are   175 symmetry adapted cartesian basis functions of A   symmetry.
 There are   168 symmetry adapted basis functions of A   symmetry.
   168 basis functions,   270 primitive gaussians,   175 cartesian basis functions
    25 alpha electrons       25 beta electrons
       nuclear repulsion energy       276.0410776968 Hartrees.
 NAtoms=    9 NActive=    9 NUniq=    9 SFac= 1.00D+00 NAtFMM=   60 NAOKFM=F Big=F
 Integral buffers will be    131072 words long.
 Raffenetti 2 integral format.
 Two-electron integral symmetry is turned on.
 R6APFD:  NTU= -4 IXU= 1 FactS= 1.050
 Nuclear repulsion after empirical dispersion term =      276.0368595523 Hartrees.
 One-electron integrals computed using PRISM.
 NBasis=   168 RedAO= T EigKep=  8.78D-06  NBF=   168
 NBsUse=   168 1.00D-06 EigRej= -1.00D+00 NBFU=   168
 Initial guess from the checkpoint file:  "MLEC0135.chk"
 B after Tr=     0.000000    0.000000    0.000000
         Rot=    1.000000    0.000063    0.000024    0.000004 Ang=   0.01 deg.
 ExpMin= 3.60D-02 ExpMax= 8.59D+03 ExpMxC= 1.30D+03 IAcc=3 IRadAn=         5 AccDes= 0.00D+00
 Harris functional with IExCor= 1009 and IRadAn=       5 diagonalized for initial guess.
 HarFok:  IExCor= 1009 AccDes= 0.00D+00 IRadAn=         5 IDoV= 1 UseB2=F ITyADJ=14
 ICtDFT=  3500011 ScaDFX=  1.000000  1.000000  1.000000  1.000000
 FoFCou: FMM=F IPFlag=           0 FMFlag=      100000 FMFlg1=           0
         NFxFlg=           0 DoJE=T BraDBF=F KetDBF=T FulRan=T
         wScrn=  0.000000 ICntrl=       500 IOpCl=  0 I1Cent=   200000004 NGrid=           0
         NMat0=    1 NMatS0=      1 NMatT0=    0 NMatD0=    1 NMtDS0=    0 NMtDT0=    0
 Petite list used in FoFCou.
 Keep R1 ints in memory in canonical form, NReq=116803935.
 Requested convergence on RMS density matrix=1.00D-08 within  32 cycles.
 Requested convergence on MAX density matrix=1.00D-06.
 Requested convergence on             energy=1.00D-06.
 No special actions if energy rises.
 SCF Done:  E(RM08HX) =  -379.259769899     A.U. after   10 cycles
            NFock= 10  Conv=0.99D-08     -V/T= 2.0034
 QCSCF skips out because SCF is already converged.
 R6APFD:  NTU= -4 IXU= 1 FactS= 1.050
 Calling FoFJK, ICntrl=      2127 FMM=F ISym2X=0 I1Cent= 0 IOpClX= 0 NMat=1 NMatS=1 NMatT=0.
 ***** Axes restored to original set *****
 -------------------------------------------------------------------
 Center     Atomic                   Forces (Hartrees/Bohr)
 Number     Number              X              Y              Z
 -------------------------------------------------------------------
      1        8          -0.000002754    0.003099195    0.000114481
      2        8           0.000894080   -0.000177205    0.000032183
      3        8          -0.000910278   -0.000172452    0.000089499
      4        6          -0.003944740   -0.000537187    0.000024364
      5        6           0.003951842   -0.000538469    0.000080016
      6        6          -0.000628425   -0.001166515   -0.000090977
      7        6           0.000641824   -0.001160410   -0.000248347
      8        1           0.000061278    0.000326729   -0.000005051
      9        1          -0.000062827    0.000326313    0.000003832
 -------------------------------------------------------------------
 Cartesian Forces:  Max     0.003951842 RMS     0.001317755

 GradGradGradGradGradGradGradGradGradGradGradGradGradGradGradGradGradGrad
 Berny optimization.
 Using GEDIIS/GDIIS optimizer.
 FormGI is forming the generalized inverse of G from B-inverse, IUseBI=4.
 Internal  Forces:  Max     0.004028020 RMS     0.000875998
 Search for a local minimum.
 Step number   3 out of a maximum of   48
 All quantities printed in internal units (Hartrees-Bohrs-Radians)
 Mixed Optimization -- En-DIIS/RFO-DIIS
 Update second derivatives using D2CorX and points    1    2    3
 DE= -7.03D-04 DEPred=-7.31D-04 R= 9.61D-01
 TightC=F SS=  1.41D+00  RLast= 7.54D-02 DXNew= 8.4853D-01 2.2607D-01
 Trust test= 9.61D-01 RLast= 7.54D-02 DXMaxT set to 5.05D-01
 ITU=  1  1  0
 Use linear search instead of GDIIS.
     Eigenvalues ---    0.01555   0.01593   0.01822   0.02054   0.02269
     Eigenvalues ---    0.02540   0.14716   0.16000   0.22747   0.25000
     Eigenvalues ---    0.25178   0.31170   0.34842   0.35246   0.36411
     Eigenvalues ---    0.36522   0.44652   0.51984   0.60537   0.93325
     Eigenvalues ---    0.96641
 RFO step:  Lambda=-6.21737664D-05 EMin= 1.55509839D-02
 Quartic linear search produced a step of -0.02625.
 Iteration  1 RMS(Cart)=  0.00254835 RMS(Int)=  0.00000795
 Iteration  2 RMS(Cart)=  0.00000734 RMS(Int)=  0.00000446
 Iteration  3 RMS(Cart)=  0.00000000 RMS(Int)=  0.00000446
 Variable       Old X    -DE/DX   Delta X   Delta X   Delta X     New X
                                 (Linear)    (Quad)   (Total)
    R1        2.60212   0.00123  -0.00049   0.00387   0.00338   2.60550
    R2        2.60216   0.00122  -0.00049   0.00386   0.00337   2.60553
    R3        2.23702   0.00076   0.00032  -0.00009   0.00023   2.23725
    R4        2.23700   0.00078   0.00032  -0.00007   0.00025   2.23725
    R5        2.51522  -0.00403   0.00005  -0.00708  -0.00703   2.50819
    R6        2.83079   0.00015  -0.00042   0.00129   0.00087   2.83165
    R7        2.04894  -0.00021  -0.00003  -0.00046  -0.00049   2.04845
    R8        2.83076   0.00016  -0.00042   0.00131   0.00089   2.83165
    R9        2.04894  -0.00021  -0.00003  -0.00045  -0.00049   2.04845
    A1        1.91229  -0.00226  -0.00064  -0.00499  -0.00563   1.90666
    A2        1.88256   0.00047  -0.00029   0.00094   0.00065   1.88320
    A3        2.26704   0.00003  -0.00035   0.00236   0.00201   2.26905
    A4        2.13359  -0.00050   0.00064  -0.00330  -0.00266   2.13093
    A5        1.88254   0.00048  -0.00029   0.00095   0.00066   1.88321
    A6        2.26704   0.00003  -0.00035   0.00236   0.00201   2.26905
    A7        2.13360  -0.00050   0.00064  -0.00332  -0.00267   2.13093
    A8        2.14539   0.00023  -0.00016   0.00093   0.00076   2.14615
    A9        1.87369   0.00066   0.00061   0.00156   0.00217   1.87586
   A10        2.26411  -0.00088  -0.00045  -0.00248  -0.00293   2.26118
   A11        2.14536   0.00023  -0.00016   0.00095   0.00077   2.14614
   A12        1.87370   0.00065   0.00061   0.00154   0.00215   1.87585
   A13        2.26413  -0.00088  -0.00045  -0.00248  -0.00293   2.26119
    D1       -3.14151  -0.00000   0.00001   0.00020   0.00022  -3.14129
    D2        0.00086  -0.00005  -0.00002  -0.00264  -0.00267  -0.00181
    D3       -3.14087  -0.00004  -0.00003  -0.00240  -0.00244   3.13987
    D4       -0.00101   0.00006   0.00004   0.00318   0.00321   0.00220
    D5       -0.00026   0.00002   0.00002   0.00091   0.00092   0.00067
    D6        3.14140   0.00002   0.00001   0.00070   0.00071  -3.14108
    D7        3.14153   0.00001   0.00001   0.00024   0.00025  -3.14140
    D8        0.00001   0.00000  -0.00000   0.00004   0.00003   0.00004
    D9       -0.00035   0.00001   0.00000   0.00100   0.00101   0.00066
   D10       -3.14110  -0.00004  -0.00003  -0.00211  -0.00214   3.13995
   D11        3.14106   0.00003   0.00001   0.00160   0.00162  -3.14050
   D12        0.00032  -0.00002  -0.00002  -0.00151  -0.00153  -0.00121
   D13        0.00078  -0.00005  -0.00003  -0.00253  -0.00257  -0.00179
   D14        3.14048   0.00006   0.00003   0.00357   0.00359  -3.13911
   D15       -3.14087  -0.00005  -0.00003  -0.00234  -0.00237   3.13994
   D16       -0.00117   0.00006   0.00004   0.00375   0.00379   0.00262
         Item               Value     Threshold  Converged?
 Maximum Force            0.004028     0.000450     NO 
 RMS     Force            0.000876     0.000300     NO 
 Maximum Displacement     0.008131     0.001800     NO 
 RMS     Displacement     0.002548     0.001200     NO 
 Predicted change in Energy=-3.159971D-05
 GradGradGradGradGradGradGradGradGradGradGradGradGradGradGradGradGradGrad

                          Input orientation:                          
 ---------------------------------------------------------------------
 Center     Atomic      Atomic             Coordinates (Angstroms)
 Number     Number       Type             X           Y           Z
 ---------------------------------------------------------------------
      1          8           0       -0.000004    0.971378    0.000271
      2          8           0        2.224524    0.610096    0.000516
      3          8           0       -2.224511    0.609944    0.000909
      4          6           0        0.663711   -1.252784   -0.000451
      5          6           0       -0.663566   -1.252832   -0.000191
      6          6           0        1.124204    0.173150   -0.000714
      7          6           0       -1.124168    0.173064   -0.001227
      8          1           0        1.360624   -2.083057   -0.000089
      9          1           0       -1.360414   -2.083158    0.000476
 ---------------------------------------------------------------------
                    Distance matrix (angstroms):
                    1          2          3          4          5
     1  O    0.000000
     2  O    2.253674   0.000000
     3  O    2.253678   4.449034   0.000000
     4  C    2.321080   2.430321   3.436798   0.000000
     5  C    2.321083   3.436796   2.430326   1.327277   0.000000
     6  C    1.378772   1.183903   3.377082   1.498446   2.286820
     7  C    1.378787   3.377090   1.183901   2.286821   1.498444
     8  H    3.343782   2.828320   4.483909   1.083993   2.187834
     9  H    3.343787   4.483904   2.828332   2.187831   1.083992
                    6          7          8          9
     6  C    0.000000
     7  C    2.248372   0.000000
     8  H    2.268560   3.356229   0.000000
     9  H    3.356226   2.268557   2.721037   0.000000
 Stoichiometry    C4H2O3
 Framework group  C1[X(C4H2O3)]
 Deg. of freedom    21
 Full point group                 C1      NOp   1
 Largest Abelian subgroup         C1      NOp   1
 Largest concise Abelian subgroup C1      NOp   1
                         Standard orientation:                         
 ---------------------------------------------------------------------
 Center     Atomic      Atomic             Coordinates (Angstroms)
 Number     Number       Type             X           Y           Z
 ---------------------------------------------------------------------
      1          8           0        0.000002   -0.963204   -0.000044
      2          8           0        2.224517   -0.601844   -0.000501
      3          8           0       -2.224517   -0.601847   -0.000664
      4          6           0        0.663640    1.260981    0.000048
      5          6           0       -0.663637    1.260983   -0.000143
      6          6           0        1.124183   -0.164936    0.000669
      7          6           0       -1.124190   -0.164928    0.001298
      8          1           0        1.360523    2.091278   -0.000571
      9          1           0       -1.360514    2.091285   -0.000997
 ---------------------------------------------------------------------
 Rotational constants (GHZ):           6.8403478           2.4903736           1.8256923
 Standard basis: 6-311++G(d,p) (5D, 7F)
 There are   175 symmetry adapted cartesian basis functions of A   symmetry.
 There are   168 symmetry adapted basis functions of A   symmetry.
   168 basis functions,   270 primitive gaussians,   175 cartesian basis functions
    25 alpha electrons       25 beta electrons
       nuclear repulsion energy       276.0104007689 Hartrees.
 NAtoms=    9 NActive=    9 NUniq=    9 SFac= 1.00D+00 NAtFMM=   60 NAOKFM=F Big=F
 Integral buffers will be    131072 words long.
 Raffenetti 2 integral format.
 Two-electron integral symmetry is turned on.
 R6APFD:  NTU= -4 IXU= 1 FactS= 1.050
 Nuclear repulsion after empirical dispersion term =      276.0061736227 Hartrees.
 One-electron integrals computed using PRISM.
 NBasis=   168 RedAO= T EigKep=  8.71D-06  NBF=   168
 NBsUse=   168 1.00D-06 EigRej= -1.00D+00 NBFU=   168
 Initial guess from the checkpoint file:  "MLEC0135.chk"
 B after Tr=    -0.000000   -0.000000    0.000000
         Rot=    1.000000   -0.000023   -0.000034    0.000003 Ang=  -0.00 deg.
 Keep R1 ints in memory in canonical form, NReq=116803935.
 Requested convergence on RMS density matrix=1.00D-08 within  32 cycles.
 Requested convergence on MAX density matrix=1.00D-06.
 Requested convergence on             energy=1.00D-06.
 No special actions if energy rises.
 SCF Done:  E(RM08HX) =  -379.259803399     A.U. after   11 cycles
            NFock= 11  Conv=0.26D-08     -V/T= 2.0034
 QCSCF skips out because SCF is already converged.
 R6APFD:  NTU= -4 IXU= 1 FactS= 1.050
 Calling FoFJK, ICntrl=      2127 FMM=F ISym2X=0 I1Cent= 0 IOpClX= 0 NMat=1 NMatS=1 NMatT=0.
 ***** Axes restored to original set *****
 -------------------------------------------------------------------
 Center     Atomic                   Forces (Hartrees/Bohr)
 Number     Number              X              Y              Z
 -------------------------------------------------------------------
      1        8          -0.000003971    0.000515900   -0.000266114
      2        8           0.000424636    0.000030636   -0.000092893
      3        8          -0.000425419    0.000029487   -0.000202171
      4        6          -0.000050860    0.000087276   -0.000067405
      5        6           0.000050339    0.000085841   -0.000182931
      6        6          -0.000239778   -0.000520063    0.000246234
      7        6           0.000245806   -0.000515599    0.000559069
      8        1           0.000154337    0.000143441    0.000014884
      9        1          -0.000155090    0.000143080   -0.000008672
 -------------------------------------------------------------------
 Cartesian Forces:  Max     0.000559069 RMS     0.000266968

 GradGradGradGradGradGradGradGradGradGradGradGradGradGradGradGradGradGrad
 Berny optimization.
 Using GEDIIS/GDIIS optimizer.
 FormGI is forming the generalized inverse of G from B-inverse, IUseBI=4.
 Internal  Forces:  Max     0.000405910 RMS     0.000173564
 Search for a local minimum.
 Step number   4 out of a maximum of   48
 All quantities printed in internal units (Hartrees-Bohrs-Radians)
 Mixed Optimization -- En-DIIS/RFO-DIIS
 Swapping is turned off.
 Update second derivatives using D2CorX and points    1    2    3    4
 DE= -3.35D-05 DEPred=-3.16D-05 R= 1.06D+00
 TightC=F SS=  1.41D+00  RLast= 1.52D-02 DXNew= 8.4853D-01 4.5677D-02
 Trust test= 1.06D+00 RLast= 1.52D-02 DXMaxT set to 5.05D-01
 ITU=  1  1  1  0
     Eigenvalues ---    0.01589   0.01647   0.01884   0.02074   0.02273
     Eigenvalues ---    0.02545   0.13268   0.16000   0.22745   0.24123
     Eigenvalues ---    0.25000   0.31171   0.34837   0.36329   0.36411
     Eigenvalues ---    0.36500   0.41174   0.51969   0.64010   0.91974
     Eigenvalues ---    0.96641
 En-DIIS/RFO-DIIS/Sim-DIIS IScMMF=       -3 using points:     4    3
 RFO step:  Lambda=-1.12969276D-05.
 DidBck=T Rises=F RFO-DIIS coefs:    0.46975    0.53025
 Iteration  1 RMS(Cart)=  0.00228889 RMS(Int)=  0.00001412
 Iteration  2 RMS(Cart)=  0.00000887 RMS(Int)=  0.00001017
 Iteration  3 RMS(Cart)=  0.00000000 RMS(Int)=  0.00001017
 Variable       Old X    -DE/DX   Delta X   Delta X   Delta X     New X
                                 (Linear)    (Quad)   (Total)
    R1        2.60550   0.00034  -0.00179   0.00323   0.00144   2.60694
    R2        2.60553   0.00034  -0.00179   0.00322   0.00143   2.60696
    R3        2.23725   0.00041  -0.00012   0.00046   0.00034   2.23759
    R4        2.23725   0.00041  -0.00013   0.00047   0.00034   2.23759
    R5        2.50819   0.00005   0.00373  -0.00492  -0.00119   2.50700
    R6        2.83165  -0.00024  -0.00046   0.00011  -0.00036   2.83130
    R7        2.04845  -0.00001   0.00026  -0.00035  -0.00009   2.04836
    R8        2.83165  -0.00024  -0.00047   0.00012  -0.00035   2.83130
    R9        2.04845  -0.00001   0.00026  -0.00034  -0.00008   2.04836
    A1        1.90666  -0.00024   0.00299  -0.00470  -0.00171   1.90495
    A2        1.88320   0.00005  -0.00034   0.00056   0.00022   1.88342
    A3        2.26905   0.00019  -0.00107   0.00294   0.00187   2.27093
    A4        2.13093  -0.00024   0.00141  -0.00350  -0.00209   2.12884
    A5        1.88321   0.00005  -0.00035   0.00056   0.00022   1.88342
    A6        2.26905   0.00019  -0.00107   0.00295   0.00188   2.27093
    A7        2.13093  -0.00024   0.00142  -0.00351  -0.00209   2.12884
    A8        2.14615   0.00011  -0.00040   0.00088   0.00047   2.14662
    A9        1.87586   0.00006  -0.00115   0.00180   0.00064   1.87649
   A10        2.26118  -0.00018   0.00155  -0.00267  -0.00112   2.26006
   A11        2.14614   0.00011  -0.00041   0.00091   0.00047   2.14660
   A12        1.87585   0.00007  -0.00114   0.00180   0.00063   1.87648
   A13        2.26119  -0.00018   0.00156  -0.00266  -0.00114   2.26005
    D1       -3.14129  -0.00001  -0.00012  -0.00112  -0.00124   3.14065
    D2       -0.00181   0.00011   0.00141   0.00504   0.00646   0.00465
    D3        3.13987   0.00009   0.00130   0.00429   0.00560  -3.13771
    D4        0.00220  -0.00014  -0.00170  -0.00596  -0.00766  -0.00546
    D5        0.00067  -0.00004  -0.00049  -0.00156  -0.00205  -0.00138
    D6       -3.14108  -0.00004  -0.00038  -0.00124  -0.00160   3.14051
    D7       -3.14140  -0.00002  -0.00013  -0.00038  -0.00052   3.14127
    D8        0.00004  -0.00001  -0.00002  -0.00006  -0.00007  -0.00003
    D9        0.00066  -0.00004  -0.00053  -0.00202  -0.00257  -0.00191
   D10        3.13995   0.00009   0.00113   0.00468   0.00580  -3.13743
   D11       -3.14050  -0.00006  -0.00086  -0.00309  -0.00395   3.13873
   D12       -0.00121   0.00006   0.00081   0.00361   0.00442   0.00321
   D13       -0.00179   0.00011   0.00136   0.00466   0.00603   0.00424
   D14       -3.13911  -0.00013  -0.00191  -0.00650  -0.00839   3.13568
   D15        3.13994   0.00011   0.00126   0.00437   0.00563  -3.13761
   D16        0.00262  -0.00014  -0.00201  -0.00679  -0.00879  -0.00618
         Item               Value     Threshold  Converged?
 Maximum Force            0.000406     0.000450     YES
 RMS     Force            0.000174     0.000300     YES
 Maximum Displacement     0.008156     0.001800     NO 
 RMS     Displacement     0.002289     0.001200     NO 
 Predicted change in Energy=-5.648847D-06
 GradGradGradGradGradGradGradGradGradGradGradGradGradGradGradGradGradGrad

                          Input orientation:                          
 ---------------------------------------------------------------------
 Center     Atomic      Atomic             Coordinates (Angstroms)
 Number     Number       Type             X           Y           Z
 ---------------------------------------------------------------------
      1          8           0       -0.000006    0.972512   -0.000698
      2          8           0        2.225205    0.608428   -0.001806
      3          8           0       -2.225190    0.608270   -0.001645
      4          6           0        0.663396   -1.252771    0.000574
      5          6           0       -0.663249   -1.252819    0.000334
      6          6           0        1.124140    0.172883    0.001531
      7          6           0       -1.124102    0.172800    0.003089
      8          1           0        1.361832   -2.081702   -0.000679
      9          1           0       -1.361626   -2.081800   -0.001200
 ---------------------------------------------------------------------
                    Distance matrix (angstroms):
                    1          2          3          4          5
     1  O    0.000000
     2  O    2.254800   0.000000
     3  O    2.254799   4.450395   0.000000
     4  C    2.322065   2.429673   3.436191   0.000000
     5  C    2.322066   3.436191   2.429674   1.326646   0.000000
     6  C    1.379535   1.184083   3.377512   1.498257   2.286348
     7  C    1.379545   3.377521   1.184083   2.286353   1.498259
     8  H    3.344073   2.825281   4.483601   1.083947   2.188151
     9  H    3.344074   4.483601   2.825283   2.188151   1.083947
                    6          7          8          9
     6  C    0.000000
     7  C    2.248242   0.000000
     8  H    2.267081   3.355989   0.000000
     9  H    3.355985   2.267081   2.723458   0.000000
 Stoichiometry    C4H2O3
 Framework group  C1[X(C4H2O3)]
 Deg. of freedom    21
 Full point group                 C1      NOp   1
 Largest Abelian subgroup         C1      NOp   1
 Largest concise Abelian subgroup C1      NOp   1
                         Standard orientation:                         
 ---------------------------------------------------------------------
 Center     Atomic      Atomic             Coordinates (Angstroms)
 Number     Number       Type             X           Y           Z
 ---------------------------------------------------------------------
      1          8           0        0.000001   -0.964697    0.000185
      2          8           0        2.225198   -0.600535    0.001221
      3          8           0       -2.225196   -0.600536    0.001564
      4          6           0        0.663324    1.260610   -0.000068
      5          6           0       -0.663322    1.260610    0.000323
      6          6           0        1.124118   -0.165027   -0.001777
      7          6           0       -1.124124   -0.165024   -0.003081
      8          1           0        1.361730    2.089565    0.001515
      9          1           0       -1.361727    2.089566    0.002343
 ---------------------------------------------------------------------
 Rotational constants (GHZ):           6.8440669           2.4892688           1.8253656
 Standard basis: 6-311++G(d,p) (5D, 7F)
 There are   175 symmetry adapted cartesian basis functions of A   symmetry.
 There are   168 symmetry adapted basis functions of A   symmetry.
   168 basis functions,   270 primitive gaussians,   175 cartesian basis functions
    25 alpha electrons       25 beta electrons
       nuclear repulsion energy       275.9819040198 Hartrees.
 NAtoms=    9 NActive=    9 NUniq=    9 SFac= 1.00D+00 NAtFMM=   60 NAOKFM=F Big=F
 Integral buffers will be    131072 words long.
 Raffenetti 2 integral format.
 Two-electron integral symmetry is turned on.
 R6APFD:  NTU= -4 IXU= 1 FactS= 1.050
 Nuclear repulsion after empirical dispersion term =      275.9776729049 Hartrees.
 One-electron integrals computed using PRISM.
 NBasis=   168 RedAO= T EigKep=  8.69D-06  NBF=   168
 NBsUse=   168 1.00D-06 EigRej= -1.00D+00 NBFU=   168
 Initial guess from the checkpoint file:  "MLEC0135.chk"
 B after Tr=    -0.000000    0.000000    0.000000
         Rot=    1.000000    0.000000    0.000000   -0.000000 Ang=   0.00 deg.
 Keep R1 ints in memory in canonical form, NReq=116803935.
 Requested convergence on RMS density matrix=1.00D-08 within  32 cycles.
 Requested convergence on MAX density matrix=1.00D-06.
 Requested convergence on             energy=1.00D-06.
 No special actions if energy rises.
 SCF Done:  E(RM08HX) =  -379.259799705     A.U. after   11 cycles
            NFock= 11  Conv=0.28D-08     -V/T= 2.0034
 QCSCF skips out because SCF is already converged.
 R6APFD:  NTU= -4 IXU= 1 FactS= 1.050
 Calling FoFJK, ICntrl=      2127 FMM=F ISym2X=0 I1Cent= 0 IOpClX= 0 NMat=1 NMatS=1 NMatT=0.
 ***** Axes restored to original set *****
 -------------------------------------------------------------------
 Center     Atomic                   Forces (Hartrees/Bohr)
 Number     Number              X              Y              Z
 -------------------------------------------------------------------
      1        8          -0.000001629   -0.000279099    0.000663510
      2        8           0.000015068    0.000055025    0.000251857
      3        8          -0.000016408    0.000054723    0.000478582
      4        6           0.000644131    0.000142839    0.000190027
      5        6          -0.000645384    0.000141736    0.000432170
      6        6          -0.000082367   -0.000077318   -0.000676237
      7        6           0.000086502   -0.000075998   -0.001323488
      8        1           0.000067363    0.000019000   -0.000031384
      9        1          -0.000067277    0.000019092    0.000014962
 -------------------------------------------------------------------
 Cartesian Forces:  Max     0.001323488 RMS     0.000392422

 GradGradGradGradGradGradGradGradGradGradGradGradGradGradGradGradGradGrad
 Berny optimization.
 Using GEDIIS/GDIIS optimizer.
 FormGI is forming the generalized inverse of G from B-inverse, IUseBI=4.
 Internal  Forces:  Max     0.000681786 RMS     0.000189642
 Search for a local minimum.
 Step number   5 out of a maximum of   48
 All quantities printed in internal units (Hartrees-Bohrs-Radians)
 Mixed Optimization -- En-DIIS/RFO-DIIS
 Swapping is turned off.
 Update second derivatives using D2CorX and points    1    2    3    4    5
 DE=  3.69D-06 DEPred=-5.65D-06 R=-6.54D-01
 Trust test=-6.54D-01 RLast= 2.15D-02 DXMaxT set to 2.52D-01
 ITU= -1  1  1  1  0
     Eigenvalues ---    0.01592   0.01736   0.02030   0.02267   0.02532
     Eigenvalues ---    0.05023   0.09712   0.16000   0.22744   0.23341
     Eigenvalues ---    0.24999   0.30972   0.34837   0.35965   0.36411
     Eigenvalues ---    0.36512   0.38634   0.51965   0.65800   0.90936
     Eigenvalues ---    0.96641
 En-DIIS/RFO-DIIS/Sim-DIIS IScMMF=       -3 using points:     5    4    3
 RFO step:  Lambda=-1.38419928D-05.
 EnCoef did     2 forward-backward iterations
 DidBck=T Rises=T En-DIIS coefs:    0.46920    0.28291    0.24789
 Iteration  1 RMS(Cart)=  0.00185556 RMS(Int)=  0.00000841
 Iteration  2 RMS(Cart)=  0.00000607 RMS(Int)=  0.00000522
 Iteration  3 RMS(Cart)=  0.00000000 RMS(Int)=  0.00000522
 Variable       Old X    -DE/DX   Delta X   Delta X   Delta X     New X
                                 (Linear)    (Quad)   (Total)
    R1        2.60694  -0.00011  -0.00160   0.00243   0.00083   2.60777
    R2        2.60696  -0.00011  -0.00159   0.00242   0.00082   2.60778
    R3        2.23759   0.00003  -0.00024   0.00034   0.00010   2.23770
    R4        2.23759   0.00003  -0.00024   0.00035   0.00011   2.23770
    R5        2.50700   0.00068   0.00238  -0.00246  -0.00008   2.50692
    R6        2.83130  -0.00016  -0.00003  -0.00026  -0.00028   2.83101
    R7        2.04836   0.00003   0.00017  -0.00016   0.00001   2.04837
    R8        2.83130  -0.00016  -0.00004  -0.00025  -0.00028   2.83102
    R9        2.04836   0.00003   0.00017  -0.00016   0.00001   2.04837
    A1        1.90495   0.00023   0.00231  -0.00292  -0.00061   1.90434
    A2        1.88342  -0.00008  -0.00027   0.00040   0.00013   1.88355
    A3        2.27093   0.00010  -0.00149   0.00296   0.00146   2.27239
    A4        2.12884  -0.00003   0.00177  -0.00336  -0.00159   2.12725
    A5        1.88342  -0.00008  -0.00028   0.00040   0.00012   1.88354
    A6        2.27093   0.00010  -0.00150   0.00296   0.00147   2.27239
    A7        2.12884  -0.00003   0.00177  -0.00336  -0.00159   2.12725
    A8        2.14662  -0.00003  -0.00044   0.00063   0.00019   2.14681
    A9        1.87649  -0.00004  -0.00088   0.00107   0.00018   1.87668
   A10        2.26006   0.00007   0.00132  -0.00167  -0.00036   2.25970
   A11        2.14660  -0.00003  -0.00044   0.00065   0.00020   2.14681
   A12        1.87648  -0.00004  -0.00087   0.00107   0.00019   1.87667
   A13        2.26005   0.00007   0.00133  -0.00167  -0.00035   2.25970
    D1        3.14065   0.00003   0.00061   0.00089   0.00151  -3.14103
    D2        0.00465  -0.00028  -0.00277  -0.00307  -0.00584  -0.00120
    D3       -3.13771  -0.00020  -0.00237  -0.00200  -0.00439   3.14109
    D4       -0.00546   0.00034   0.00327   0.00335   0.00662   0.00116
    D5       -0.00138   0.00009   0.00086   0.00046   0.00132  -0.00006
    D6        3.14051   0.00008   0.00067   0.00046   0.00113  -3.14155
    D7        3.14127   0.00003   0.00021  -0.00000   0.00021   3.14148
    D8       -0.00003   0.00001   0.00003  -0.00000   0.00003  -0.00000
    D9       -0.00191   0.00011   0.00111   0.00156   0.00268   0.00077
   D10       -3.13743  -0.00023  -0.00255  -0.00277  -0.00531   3.14045
   D11        3.13873   0.00017   0.00170   0.00198   0.00368  -3.14078
   D12        0.00321  -0.00017  -0.00197  -0.00234  -0.00431  -0.00110
   D13        0.00424  -0.00027  -0.00256  -0.00234  -0.00491  -0.00067
   D14        3.13568   0.00031   0.00356   0.00349   0.00705  -3.14046
   D15       -3.13761  -0.00025  -0.00240  -0.00234  -0.00474   3.14083
   D16       -0.00618   0.00033   0.00373   0.00349   0.00722   0.00104
         Item               Value     Threshold  Converged?
 Maximum Force            0.000682     0.000450     NO 
 RMS     Force            0.000190     0.000300     YES
 Maximum Displacement     0.006697     0.001800     NO 
 RMS     Displacement     0.001856     0.001200     NO 
 Predicted change in Energy=-6.448983D-06
 GradGradGradGradGradGradGradGradGradGradGradGradGradGradGradGradGradGrad

                          Input orientation:                          
 ---------------------------------------------------------------------
 Center     Atomic      Atomic             Coordinates (Angstroms)
 Number     Number       Type             X           Y           Z
 ---------------------------------------------------------------------
      1          8           0       -0.000005    0.972849    0.000193
      2          8           0        2.225586    0.607644    0.000208
      3          8           0       -2.225574    0.607487    0.000551
      4          6           0        0.663375   -1.252838   -0.000252
      5          6           0       -0.663228   -1.252889   -0.000180
      6          6           0        1.124253    0.172615   -0.000662
      7          6           0       -1.124212    0.172534   -0.000455
      8          1           0        1.363027   -2.080751   -0.000023
      9          1           0       -1.362822   -2.080851    0.000120
 ---------------------------------------------------------------------
                    Distance matrix (angstroms):
                    1          2          3          4          5
     1  O    0.000000
     2  O    2.255356   0.000000
     3  O    2.255360   4.451160   0.000000
     4  C    2.322446   2.429383   3.436108   0.000000
     5  C    2.322450   3.436106   2.429388   1.326602   0.000000
     6  C    1.379975   1.184138   3.377937   1.498108   2.286296
     7  C    1.379980   3.377938   1.184139   2.286296   1.498111
     8  H    3.343998   2.823380   4.483824   1.083952   2.188850
     9  H    3.344003   4.483824   2.823385   2.188853   1.083953
                    6          7          8          9
     6  C    0.000000
     7  C    2.248465   0.000000
     8  H    2.265981   3.356136   0.000000
     9  H    3.356137   2.265983   2.725849   0.000000
 Stoichiometry    C4H2O3
 Framework group  C1[X(C4H2O3)]
 Deg. of freedom    21
 Full point group                 C1      NOp   1
 Largest Abelian subgroup         C1      NOp   1
 Largest concise Abelian subgroup C1      NOp   1
                         Standard orientation:                         
 ---------------------------------------------------------------------
 Center     Atomic      Atomic             Coordinates (Angstroms)
 Number     Number       Type             X           Y           Z
 ---------------------------------------------------------------------
      1          8           0        0.000002   -0.965273   -0.000225
      2          8           0        2.225579   -0.599990   -0.000240
      3          8           0       -2.225581   -0.599991   -0.000583
      4          6           0        0.663302    1.260437    0.000220
      5          6           0       -0.663300    1.260441    0.000149
      6          6           0        1.124231   -0.165000    0.000631
      7          6           0       -1.124233   -0.164999    0.000424
      8          1           0        1.362925    2.088374   -0.000009
      9          1           0       -1.362924    2.088378   -0.000152
 ---------------------------------------------------------------------
 Rotational constants (GHZ):           6.8462645           2.4884577           1.8250828
 Standard basis: 6-311++G(d,p) (5D, 7F)
 There are   175 symmetry adapted cartesian basis functions of A   symmetry.
 There are   168 symmetry adapted basis functions of A   symmetry.
   168 basis functions,   270 primitive gaussians,   175 cartesian basis functions
    25 alpha electrons       25 beta electrons
       nuclear repulsion energy       275.9615054742 Hartrees.
 NAtoms=    9 NActive=    9 NUniq=    9 SFac= 1.00D+00 NAtFMM=   60 NAOKFM=F Big=F
 Integral buffers will be    131072 words long.
 Raffenetti 2 integral format.
 Two-electron integral symmetry is turned on.
 R6APFD:  NTU= -4 IXU= 1 FactS= 1.050
 Nuclear repulsion after empirical dispersion term =      275.9572723002 Hartrees.
 One-electron integrals computed using PRISM.
 NBasis=   168 RedAO= T EigKep=  8.69D-06  NBF=   168
 NBsUse=   168 1.00D-06 EigRej= -1.00D+00 NBFU=   168
 Initial guess from the checkpoint file:  "MLEC0135.chk"
 B after Tr=    -0.000000   -0.000000   -0.000000
         Rot=    1.000000   -0.000086    0.000039    0.000000 Ang=  -0.01 deg.
 Keep R1 ints in memory in canonical form, NReq=116803935.
 Requested convergence on RMS density matrix=1.00D-08 within  32 cycles.
 Requested convergence on MAX density matrix=1.00D-06.
 Requested convergence on             energy=1.00D-06.
 No special actions if energy rises.
 SCF Done:  E(RM08HX) =  -379.259804846     A.U. after   10 cycles
            NFock= 10  Conv=0.84D-08     -V/T= 2.0034
 QCSCF skips out because SCF is already converged.
 R6APFD:  NTU= -4 IXU= 1 FactS= 1.050
 Calling FoFJK, ICntrl=      2127 FMM=F ISym2X=0 I1Cent= 0 IOpClX= 0 NMat=1 NMatS=1 NMatT=0.
 ***** Axes restored to original set *****
 -------------------------------------------------------------------
 Center     Atomic                   Forces (Hartrees/Bohr)
 Number     Number              X              Y              Z
 -------------------------------------------------------------------
      1        8          -0.000002067   -0.000624640   -0.000153079
      2        8          -0.000135256    0.000062336   -0.000086796
      3        8           0.000137215    0.000061527   -0.000080498
      4        6           0.000746342    0.000137636   -0.000075663
      5        6          -0.000747717    0.000139792   -0.000067709
      6        6          -0.000180107    0.000180789    0.000239597
      7        6           0.000180900    0.000181116    0.000219979
      8        1          -0.000035020   -0.000069429    0.000001129
      9        1           0.000035711   -0.000069127    0.000003040
 -------------------------------------------------------------------
 Cartesian Forces:  Max     0.000747717 RMS     0.000264287

 GradGradGradGradGradGradGradGradGradGradGradGradGradGradGradGradGradGrad
 Berny optimization.
 Using GEDIIS/GDIIS optimizer.
 FormGI is forming the generalized inverse of G from B-inverse, IUseBI=4.
 Internal  Forces:  Max     0.000652217 RMS     0.000166741
 Search for a local minimum.
 Step number   6 out of a maximum of   48
 All quantities printed in internal units (Hartrees-Bohrs-Radians)
 Mixed Optimization -- En-DIIS/RFO-DIIS
 Swapping is turned off.
 Update second derivatives using D2CorX and points    1    2    3    4    5
                                                      6
 DE= -5.14D-06 DEPred=-6.45D-06 R= 7.97D-01
 TightC=F SS=  1.41D+00  RLast= 1.82D-02 DXNew= 4.2426D-01 5.4494D-02
 Trust test= 7.97D-01 RLast= 1.82D-02 DXMaxT set to 2.52D-01
 ITU=  1 -1  1  1  1  0
     Eigenvalues ---    0.01598   0.01737   0.02050   0.02268   0.02540
     Eigenvalues ---    0.05781   0.10875   0.16000   0.22744   0.23560
     Eigenvalues ---    0.25000   0.30464   0.34837   0.36397   0.36411
     Eigenvalues ---    0.36604   0.43915   0.51964   0.67148   0.91332
     Eigenvalues ---    0.96641
 En-DIIS/RFO-DIIS/Sim-DIIS IScMMF=       -3 using points:     6    5    4    3
 RFO step:  Lambda=-3.37307372D-06.
 DidBck=T Rises=F RFO-DIIS coefs:    0.42780    0.23343    0.35562   -0.01686
 Iteration  1 RMS(Cart)=  0.00076989 RMS(Int)=  0.00000160
 Iteration  2 RMS(Cart)=  0.00000062 RMS(Int)=  0.00000148
 Variable       Old X    -DE/DX   Delta X   Delta X   Delta X     New X
                                 (Linear)    (Quad)   (Total)
    R1        2.60777  -0.00039  -0.00091  -0.00027  -0.00118   2.60659
    R2        2.60778  -0.00039  -0.00090  -0.00028  -0.00118   2.60661
    R3        2.23770  -0.00010  -0.00017   0.00018   0.00001   2.23770
    R4        2.23770  -0.00011  -0.00017   0.00018   0.00000   2.23770
    R5        2.50692   0.00065   0.00033   0.00079   0.00113   2.50804
    R6        2.83101  -0.00008   0.00030  -0.00046  -0.00016   2.83085
    R7        2.04837   0.00003   0.00002   0.00003   0.00005   2.04842
    R8        2.83102  -0.00009   0.00029  -0.00046  -0.00017   2.83085
    R9        2.04837   0.00003   0.00001   0.00003   0.00005   2.04842
    A1        1.90434   0.00034   0.00084   0.00020   0.00104   1.90537
    A2        1.88355  -0.00013  -0.00014  -0.00012  -0.00026   1.88329
    A3        2.27239  -0.00001  -0.00144   0.00027  -0.00117   2.27122
    A4        2.12725   0.00014   0.00157  -0.00015   0.00142   2.12867
    A5        1.88354  -0.00013  -0.00013  -0.00012  -0.00025   1.88329
    A6        2.27239  -0.00001  -0.00144   0.00027  -0.00117   2.27123
    A7        2.12725   0.00014   0.00157  -0.00015   0.00142   2.12867
    A8        2.14681  -0.00010  -0.00025  -0.00002  -0.00027   2.14654
    A9        1.87668  -0.00004  -0.00028   0.00002  -0.00026   1.87642
   A10        2.25970   0.00014   0.00053   0.00000   0.00054   2.26023
   A11        2.14681  -0.00010  -0.00026  -0.00002  -0.00028   2.14653
   A12        1.87667  -0.00004  -0.00029   0.00002  -0.00026   1.87641
   A13        2.25970   0.00014   0.00054  -0.00000   0.00054   2.26024
    D1       -3.14103  -0.00003  -0.00044  -0.00030  -0.00074   3.14142
    D2       -0.00120   0.00007   0.00111   0.00015   0.00126   0.00006
    D3        3.14109   0.00002   0.00057  -0.00022   0.00035   3.14144
    D4        0.00116  -0.00007  -0.00114  -0.00000  -0.00114   0.00002
[...]
 Total Bot       0.244619D-12        -12.611510        -29.039075
 Total V=0       0.234029D+14         13.369269         30.783879
 Vib (Bot)       0.412216D-25        -25.384875        -58.450835
 Vib (Bot)    1  0.126681D+01          0.102712          0.236504
 Vib (Bot)    2  0.766694D+00         -0.115378         -0.265668
 Vib (Bot)    3  0.409895D+00         -0.387328         -0.891855
 Vib (Bot)    4  0.255605D+00         -0.592430         -1.364122
 Vib (V=0)       0.394370D+01          0.595904          1.372119
 Vib (V=0)    1  0.186192D+01          0.269960          0.621606
 Vib (V=0)    2  0.141532D+01          0.150856          0.347359
 Vib (V=0)    3  0.114654D+01          0.059389          0.136748
 Vib (V=0)    4  0.106155D+01          0.025939          0.059726
 Electronic      0.100000D+01          0.000000          0.000000
 Translational   0.381325D+08          7.581296         17.456578
 Rotational      0.155621D+06          5.192070         11.955182
 ***** Axes restored to original set *****
 -------------------------------------------------------------------
 Center     Atomic                   Forces (Hartrees/Bohr)
 Number     Number              X              Y              Z
 -------------------------------------------------------------------
      1        8          -0.000001804   -0.000034972    0.000002791
      2        8          -0.000032821    0.000005367    0.000013665
      3        8           0.000032555    0.000004937   -0.000010678
      4        6           0.000047970    0.000010297    0.000014017
      5        6          -0.000048329    0.000010517   -0.000011566
      6        6           0.000002937   -0.000009231   -0.000038706
      7        6          -0.000000635   -0.000007391    0.000030435
      8        1           0.000019537    0.000010212    0.000002531
      9        1          -0.000019411    0.000010265   -0.000002489
 -------------------------------------------------------------------
 Cartesian Forces:  Max     0.000048329 RMS     0.000021485
 FormGI is forming the generalized inverse of G from B-inverse, IUseBI=4.

 GradGradGradGradGradGradGradGradGradGradGradGradGradGradGradGradGradGrad
 Berny optimization.
 Internal  Forces:  Max     0.000065441 RMS     0.000019305
 Search for a local minimum.
 Step number   1 out of a maximum of    2
 All quantities printed in internal units (Hartrees-Bohrs-Radians)
 Second derivative matrix not updated -- analytic derivatives used.
 ITU=  0
     Eigenvalues ---    0.01103   0.01250   0.01654   0.01991   0.05739
     Eigenvalues ---    0.06081   0.08947   0.09875   0.14020   0.21877
     Eigenvalues ---    0.22638   0.25448   0.26016   0.33333   0.33550
     Eigenvalues ---    0.35588   0.37212   0.37287   0.60957   0.99427
     Eigenvalues ---    1.01140
 Angle between quadratic step and forces=  46.90 degrees.
 Linear search not attempted -- first point.
 Iteration  1 RMS(Cart)=  0.00012788 RMS(Int)=  0.00000001
 Iteration  2 RMS(Cart)=  0.00000001 RMS(Int)=  0.00000001
 Variable       Old X    -DE/DX   Delta X   Delta X   Delta X     New X
                                 (Linear)    (Quad)   (Total)
    R1        2.60659  -0.00003   0.00000  -0.00009  -0.00009   2.60650
    R2        2.60661  -0.00003   0.00000  -0.00011  -0.00011   2.60650
    R3        2.23770  -0.00003   0.00000  -0.00002  -0.00002   2.23769
    R4        2.23770  -0.00003   0.00000  -0.00001  -0.00001   2.23769
    R5        2.50804   0.00007   0.00000   0.00011   0.00011   2.50815
    R6        2.83085  -0.00002   0.00000  -0.00005  -0.00005   2.83081
    R7        2.04842   0.00000   0.00000   0.00001   0.00001   2.04843
    R8        2.83085  -0.00002   0.00000  -0.00005  -0.00005   2.83081
    R9        2.04842   0.00000   0.00000   0.00001   0.00001   2.04843
    A1        1.90537   0.00002   0.00000   0.00003   0.00003   1.90540
    A2        1.88329  -0.00001   0.00000  -0.00004  -0.00004   1.88325
    A3        2.27122   0.00003   0.00000   0.00023   0.00023   2.27145
    A4        2.12867  -0.00001   0.00000  -0.00019  -0.00019   2.12848
    A5        1.88329  -0.00001   0.00000  -0.00004  -0.00004   1.88325
    A6        2.27123   0.00003   0.00000   0.00023   0.00023   2.27145
    A7        2.12867  -0.00001   0.00000  -0.00019  -0.00019   2.12848
    A8        2.14654  -0.00002   0.00000  -0.00007  -0.00007   2.14647
    A9        1.87642   0.00000   0.00000   0.00002   0.00002   1.87644
   A10        2.26023   0.00002   0.00000   0.00005   0.00005   2.26028
   A11        2.14653  -0.00002   0.00000  -0.00006  -0.00006   2.14647
   A12        1.87641   0.00000   0.00000   0.00002   0.00002   1.87644
   A13        2.26024   0.00002   0.00000   0.00004   0.00004   2.26028
    D1        3.14142   0.00001   0.00000   0.00017   0.00017   3.14159
    D2        0.00006  -0.00000   0.00000  -0.00006  -0.00006  -0.00000
    D3        3.14144   0.00001   0.00000   0.00015   0.00015  -3.14159
    D4        0.00002  -0.00000   0.00000  -0.00002  -0.00002   0.00000
    D5        0.00014  -0.00001   0.00000  -0.00014  -0.00014  -0.00000
    D6       -3.14152  -0.00001   0.00000  -0.00007  -0.00007   3.14159
    D7       -3.14152  -0.00001   0.00000  -0.00008  -0.00008   3.14159
    D8        0.00001  -0.00000   0.00000  -0.00001  -0.00001   0.00000
    D9       -0.00013   0.00001   0.00000   0.00014   0.00014   0.00000
   D10       -3.14148  -0.00001   0.00000  -0.00012  -0.00012  -3.14159
   D11        3.14152   0.00001   0.00000   0.00008   0.00008  -3.14159
   D12        0.00018  -0.00001   0.00000  -0.00018  -0.00018   0.00000
   D13       -0.00011   0.00001   0.00000   0.00011   0.00011   0.00000
   D14       -3.14152  -0.00000   0.00000  -0.00008  -0.00008  -3.14159
   D15        3.14155   0.00000   0.00000   0.00004   0.00004   3.14159
   D16        0.00014  -0.00001   0.00000  -0.00014  -0.00014  -0.00000
         Item               Value     Threshold  Converged?
 Maximum Force            0.000065     0.000450     YES
 RMS     Force            0.000019     0.000300     YES
 Maximum Displacement     0.000421     0.001800     YES
 RMS     Displacement     0.000128     0.001200     YES
 Predicted change in Energy=-2.661599D-08
 Optimization completed.
    -- Stationary point found.
                           ----------------------------
                           !   Optimized Parameters   !
                           ! (Angstroms and Degrees)  !
 --------------------------                            --------------------------
 ! Name  Definition              Value          Derivative Info.                !
 --------------------------------------------------------------------------------
 ! R1    R(1,6)                  1.3794         -DE/DX =    0.0                 !
 ! R2    R(1,7)                  1.3794         -DE/DX =    0.0                 !
 ! R3    R(2,6)                  1.1841         -DE/DX =    0.0                 !
 ! R4    R(3,7)                  1.1841         -DE/DX =    0.0                 !
 ! R5    R(4,5)                  1.3272         -DE/DX =    0.0001              !
 ! R6    R(4,6)                  1.498          -DE/DX =    0.0                 !
 ! R7    R(4,8)                  1.084          -DE/DX =    0.0                 !
 ! R8    R(5,7)                  1.498          -DE/DX =    0.0                 !
 ! R9    R(5,9)                  1.084          -DE/DX =    0.0                 !
 ! A1    A(6,1,7)              109.1697         -DE/DX =    0.0                 !
 ! A2    A(5,4,6)              107.9045         -DE/DX =    0.0                 !
 ! A3    A(5,4,8)              130.1315         -DE/DX =    0.0                 !
 ! A4    A(6,4,8)              121.9639         -DE/DX =    0.0                 !
 ! A5    A(4,5,7)              107.9045         -DE/DX =    0.0                 !
 ! A6    A(4,5,9)              130.1316         -DE/DX =    0.0                 !
 ! A7    A(7,5,9)              121.9639         -DE/DX =    0.0                 !
 ! A8    A(1,6,2)              122.9874         -DE/DX =    0.0                 !
 ! A9    A(1,6,4)              107.5107         -DE/DX =    0.0                 !
 ! A10   A(2,6,4)              129.5019         -DE/DX =    0.0                 !
 ! A11   A(1,7,3)              122.9871         -DE/DX =    0.0                 !
 ! A12   A(1,7,5)              107.5105         -DE/DX =    0.0                 !
 ! A13   A(3,7,5)              129.5023         -DE/DX =    0.0                 !
 ! D1    D(7,1,6,2)            179.9904         -DE/DX =    0.0                 !
 ! D2    D(7,1,6,4)              0.0037         -DE/DX =    0.0                 !
 ! D3    D(6,1,7,3)           -180.0086         -DE/DX =    0.0                 !
 ! D4    D(6,1,7,5)              0.0012         -DE/DX =    0.0                 !
 ! D5    D(6,4,5,7)              0.0082         -DE/DX =    0.0                 !
 ! D6    D(6,4,5,9)            180.0041         -DE/DX =    0.0                 !
 ! D7    D(8,4,5,7)            180.0044         -DE/DX =    0.0                 !
 ! D8    D(8,4,5,9)              0.0003         -DE/DX =    0.0                 !
 ! D9    D(5,4,6,1)             -0.0077         -DE/DX =    0.0                 !
 ! D10   D(5,4,6,2)           -179.9933         -DE/DX =    0.0                 !
 ! D11   D(8,4,6,1)           -180.0043         -DE/DX =    0.0                 !
 ! D12   D(8,4,6,2)              0.0102         -DE/DX =    0.0                 !
 ! D13   D(4,5,7,1)             -0.0062         -DE/DX =    0.0                 !
 ! D14   D(4,5,7,3)           -179.9956         -DE/DX =    0.0                 !
 ! D15   D(9,5,7,1)            179.9975         -DE/DX =    0.0                 !
 ! D16   D(9,5,7,3)              0.0081         -DE/DX =    0.0                 !
 --------------------------------------------------------------------------------
 GradGradGradGradGradGradGradGradGradGradGradGradGradGradGradGradGradGrad


 ----------------------------------------------------------------------

 Electric dipole moment (input orientation):
 (Debye = 10**-18 statcoulomb cm , SI units = C m)
                  (au)            (Debye)         (10**-30 SI)
   Tot        0.173123D+01      0.440035D+01      0.146780D+02
   x          0.483569D-04      0.122911D-03      0.409987D-03
   y         -0.173123D+01     -0.440035D+01     -0.146780D+02
   z         -0.617156D-04     -0.156865D-03     -0.523246D-03

 Dipole polarizability, Alpha (input orientation).
 (esu units = cm**3 , SI units = C**2 m**2 J**-1)
 Alpha(0;0):
               (au)            (10**-24 esu)      (10**-40 SI)
   iso        0.511029D+02      0.757266D+01      0.842572D+01
   aniso      0.423862D+02      0.628099D+01      0.698855D+01
   xx         0.773991D+02      0.114694D+02      0.127614D+02
   yx         0.107692D-02      0.159583D-03      0.177560D-03
   yy         0.469128D+02      0.695176D+01      0.773487D+01
   zx        -0.421456D-02     -0.624533D-03     -0.694887D-03
   zy         0.804980D-03      0.119286D-03      0.132723D-03
   zz         0.289967D+02      0.429687D+01      0.478092D+01

 ----------------------------------------------------------------------

 Dipole orientation:
     8          0.00004138         -0.00004638         -1.83684599
     8          4.20495640         -0.00026900         -1.15002621
     8         -4.20486753          0.00014713         -1.14996451
     6          1.25409161         -0.00017572          2.36741232
     6         -1.25394898         -0.00000078          2.36743532
     6          2.12436187          0.00000515         -0.32634967
     6         -2.12426598         -0.00008591         -0.32631020
     1          2.57440461         -0.00030444          3.93355458
     1         -2.57423568          0.00006362          3.93360015

 Electric dipole moment (dipole orientation):
 (Debye = 10**-18 statcoulomb cm , SI units = C m)
                  (au)            (Debye)         (10**-30 SI)
   Tot        0.173123D+01      0.440035D+01      0.146780D+02
   x          0.000000D+00      0.000000D+00      0.000000D+00
   y          0.000000D+00      0.000000D+00      0.000000D+00
   z          0.173123D+01      0.440035D+01      0.146780D+02

 Dipole polarizability, Alpha (dipole orientation).
 (esu units = cm**3 , SI units = C**2 m**2 J**-1)
 Alpha(0;0):
               (au)            (10**-24 esu)      (10**-40 SI)
   iso        0.511029D+02      0.757266D+01      0.842572D+01
   aniso      0.423862D+02      0.628099D+01      0.698855D+01
   xx         0.773991D+02      0.114694D+02      0.127614D+02
   yx        -0.286257D-02     -0.424189D-03     -0.471974D-03
   yy         0.289967D+02      0.429687D+01      0.478092D+01
   zx        -0.225220D-03     -0.333742D-04     -0.371338D-04
   zy        -0.166428D-03     -0.246620D-04     -0.274402D-04
   zz         0.469128D+02      0.695176D+01      0.773487D+01

 ----------------------------------------------------------------------
 1\1\GINC-PITOMBA\Freq\RM08HX\6-311++G(d,p)\C4H2O3\VALTER\20-Sep-2025\0
 \\#N Geom=AllCheck Guess=TCheck SCRF=Check GenChk RM08HX/6-311++G(d,p)
  Freq\\MLEC0135\\0,1\O,-0.0000052549,0.9720170373,0.0000101063\O,2.225
 1500974,0.6086298203,-0.0001828103\O,-2.2251370634,0.6084728535,0.0001
 617032\C,0.663671691,-1.2527621065,-0.0001561823\C,-0.6635262326,-1.25
 28113526,-0.0000265403\C,1.1241590643,0.1727282101,-0.0000225199\C,-1.
 1241179727,0.1726445245,-0.0000079078\H,1.3623743856,-2.0815093826,-0.
 0002733585\H,-1.3621687149,-2.0816096041,-0.0000024904\\Version=ES64L-
 G16RevB.01\State=1-A\HF=-379.2598066\RMSD=9.506e-10\RMSF=2.148e-05\Zer
 oPoint=0.0564839\Thermal=0.0616116\Dipole=0.0000484,-1.7312329,-0.0000
 617\DipoleDeriv=-1.6000383,-0.0000292,0.0000809,-0.0000239,-0.846624,-
 0.0000323,-0.0000032,-0.0000239,-0.2185837,-1.2942449,-0.1799937,0.000
 026,-0.4197297,-0.5774435,0.0000069,0.0000948,0.0000193,-0.3551576,-1.
 2942886,0.1799425,0.0000483,0.4196834,-0.5774,-0.0000297,0.0001158,-0.
 0000344,-0.3551553,-0.0656002,-0.1520989,-0.0000163,-0.2349459,-0.1609
 406,0.000027,-0.0000306,0.000011,-0.1060303,-0.0656416,0.1521062,0.000
 0036,0.2349562,-0.1609134,-0.0000276,-0.000004,-0.0000219,-0.1060327,2
 .0726115,0.1137659,-0.0000655,0.2017334,1.1070963,0.0000273,-0.0000645
 ,0.0000142,0.4079836,2.0726394,-0.1136952,-0.0000839,-0.2016754,1.1070
 774,0.0000398,-0.0000941,0.0000475,0.4079849,0.0872802,0.0205331,0.000
 0045,0.0130064,0.0545751,-0.0000072,-0.0000075,-0.0000167,0.1624952,0.
 0872826,-0.0205307,0.0000023,-0.0130045,0.0545727,-0.0000042,-0.000006
 7,0.000005,0.1624957\Polar=77.3990869,0.0010769,46.912769,-0.0042146,0
 .000805,28.9967423\Quadrupole=-5.7758505,3.3249661,2.4508844,-0.000331
 9,0.0008122,0.0000943\PG=C01 [X(C4H2O3)]\NImag=0\\0.42900644,-0.000005
 67,0.43023527,-0.00002070,0.00001431,0.05130113,-0.11982742,-0.0013024
 7,0.00000865,0.85771769,0.02389306,0.03798585,-0.00000102,0.30462092,0
 .21869499,0.00001281,0.00000100,0.01546577,-0.00010316,-0.00003847,0.0
 2992563,-0.11982572,0.00129160,0.00000760,-0.01471076,0.00321467,0.000
 00106,0.85776160,-0.02390358,0.03798417,0.00000238,-0.00321580,0.00290
 736,0.00000092,-0.30457900,0.21865387,0.00000958,0.00000068,0.01546569
 ,0.00000058,-0.00000047,-0.00121422,-0.00011236,0.00004782,0.02992560,
 -0.00547539,0.02489341,0.00000152,-0.03341621,-0.05687356,0.00000322,0
 .00428499,-0.00002904,-0.00000190,0.90115025,0.01741387,-0.04859457,-0
 .00000580,-0.03284712,-0.01737636,-0.00000041,0.00670447,-0.00895358,-
 0.00000155,-0.13908218,0.62002086,0.00000234,-0.00000225,0.01640492,0.
 00000715,0.00000695,0.02230698,-0.00000029,0.00000054,0.00110636,-0.00
 007652,0.00004727,0.10851858,-0.00547266,-0.02489017,-0.00000039,0.004
 28532,0.00002989,-0.00000189,-0.03342181,0.05687166,0.00000792,-0.5659
 5261,-0.00563532,0.00004829,0.90112887,-0.01741080,-0.04859693,-0.0000
 0071,-0.00670363,-0.00895402,0.00000103,0.03284522,-0.01736912,-0.0000
 0363,0.00560193,-0.11633076,-0.00000642,0.13910353,0.62004030,0.000001
 23,-0.00000313,0.01640470,-0.00000111,-0.00000173,0.00110630,0.0000087
 5,-0.00000902,0.02230688,0.00004924,-0.00000229,-0.04292634,-0.0000603
 1,0.00000712,0.10851845,-0.09168753,0.03430189,0.00000249,-0.71560297,
 -0.27149977,0.00008976,0.02314021,0.00255291,-0.00000111,-0.08411669,0
 .00051538,-0.00000434,-0.03031417,-0.02824383,0.00000040,1.00596519,0.
 04784881,-0.19994264,-0.00000475,-0.28380308,-0.22395016,0.00003993,-0
 .02614564,-0.01222541,0.00000269,-0.01514715,-0.19670492,-0.00001683,-
 0.02679667,-0.00819184,0.00000366,0.27297823,0.58175228,-0.00000130,-0
 .00000716,-0.05920840,0.00008604,0.00003435,-0.07000950,0.00000059,-0.
 00000221,0.00627515,-0.00000577,-0.00001067,-0.07523106,0.00000634,0.0
 0000145,0.00091184,-0.00008814,-0.00002199,0.19753209,-0.09167264,-0.0
 3428907,0.00000048,0.02313889,-0.00255067,-0.00000191,-0.71564375,0.27
 146863,0.00009727,-0.03031868,0.02824241,0.00000379,-0.08411770,-0.000
 50681,-0.00000455,-0.11202744,0.03524707,0.00000179,1.00599655,-0.0478
 3612,-0.19994486,-0.00000381,0.02614786,-0.01222387,-0.00000479,0.2837
 7238,-0.22391374,-0.00004561,0.02679535,-0.00818774,-0.00000448,0.0151
 5540,-0.19670470,0.00000286,-0.03525929,0.07060273,0.00000896,-0.27295
 843,0.58171380,-0.00000381,-0.00000292,-0.05920867,0.00000286,0.000000
 67,0.00627520,0.00009504,-0.00004119,-0.07000932,0.00000897,-0.0000025
 5,0.00091168,-0.00000487,-0.00000033,-0.07523079,-0.00000229,-0.000001
 85,-0.01401627,-0.00009714,0.00004843,0.19753203,0.00247752,-0.0047365
 7,-0.00000004,-0.00065014,0.00168344,0.00000025,-0.00093458,0.00251779
 ,0.,-0.17972829,0.14849365,0.00002130,-0.00642872,0.02380397,0.0000010
 3,0.01050014,-0.00790520,-0.00000149,-0.00585619,-0.00372373,0.0000017
 2,0.17995105,0.00213580,-0.00456328,-0.00000030,-0.00229894,0.00151478
 ,0.00000071,0.00059755,0.00140164,0.00000036,0.14812274,-0.23348298,-0
 .00002571,-0.00571974,0.00961137,-0.00000068,0.02036603,-0.00787834,-0
 .00000220,-0.00428859,-0.00346226,-0.00000126,-0.15952412,0.23680707,0
 .00000006,0.00000030,0.00168745,-0.00000050,-0.00000032,-0.00097012,-0
 .00000028,0.00000030,-0.00288604,0.00002071,-0.00002598,-0.03823238,0.
 00000009,-0.00000195,0.00714129,0.00000156,-0.00000006,0.00037337,0.00
 000108,-0.00000093,0.01337281,-0.00002232,0.00002854,0.02463699,0.0024
 7740,0.00473706,0.00000038,-0.00093439,-0.00251798,-0.00000015,-0.0006
 5019,-0.00168358,0.00000002,-0.00642737,-0.02380517,-0.00000170,-0.179
 70653,-0.14848958,0.00000532,-0.00585673,0.00372364,0.00000194,0.01050
 097,0.00790659,-0.00000048,0.00066921,0.00060928,-0.00000039,0.1799276
 3,-0.00213537,-0.00456302,-0.00000031,-0.00059774,0.00140142,0.0000000
 9,0.00229876,0.00151481,-0.00000030,0.00571849,0.00961005,0.00000092,-
 0.14811858,-0.23350431,0.00000321,0.00428846,-0.00346170,-0.00000054,-
 0.02036454,-0.00787937,0.00000100,-0.00060923,0.00005199,0.00000011,0.
 15951975,0.23683013,-0.00000021,-0.00000082,0.00168742,-0.00000051,0.0
 0000005,-0.00288603,-0.00000011,0.00000047,-0.00097010,0.00000054,0.00
 000197,0.00714126,0.00000482,0.00000344,-0.03823232,0.00000167,-0.0000
 0082,0.01337279,-0.00000082,-0.00000063,0.00037334,-0.00000044,0.00000
 054,-0.00512336,-0.00000494,-0.00000419,0.02463700\\0.00000180,0.00003
 497,-0.00000279,0.00003282,-0.00000537,-0.00001367,-0.00003256,-0.0000
 0494,0.00001068,-0.00004797,-0.00001030,-0.00001402,0.00004833,-0.0000
 1052,0.00001157,-0.00000294,0.00000923,0.00003871,0.00000063,0.0000073
 9,-0.00003043,-0.00001954,-0.00001021,-0.00000253,0.00001941,-0.000010
 26,0.00000249\\\@


 IF GOD HAD MEANT MAN TO SEE THE SUN RISE, HE
 WOULD HAVE SCHEDULED IT FOR A LATER HOUR.
 Job cpu time:       0 days  0 hours 21 minutes 36.6 seconds.
 Elapsed time:       0 days  0 hours  1 minutes 22.2 seconds.
 File lengths (MBytes):  RWF=     32 Int=      0 D2E=      0 Chk=      3 Scr=      1
 Normal termination of Gaussian 16 at Sat Sep 20 17:04:06 2025.
