 Entering Gaussian System, Link 0=g16
 Input=MLHE0136.gjf
 Output=MLHE0136.log
 Initial command:
 /usr/local/g16/l1.exe "/dados_01/scratch/Gau-2154991.inp" -scrdir="/dados_01/scratch/"
 Entering Link 1 = /usr/local/g16/l1.exe PID=   2154992.
  
 Copyright (c) 1988-2017, Gaussian, Inc.  All Rights Reserved.
  
 This is part of the Gaussian(R) 16 program.  It is based on
 the Gaussian(R) 09 system (copyright 2009, Gaussian, Inc.),
 the Gaussian(R) 03 system (copyright 2003, Gaussian, Inc.),
 the Gaussian(R) 98 system (copyright 1998, Gaussian, Inc.),
 the Gaussian(R) 94 system (copyright 1995, Gaussian, Inc.),
 the Gaussian 92(TM) system (copyright 1992, Gaussian, Inc.),
 the Gaussian 90(TM) system (copyright 1990, Gaussian, Inc.),
 the Gaussian 88(TM) system (copyright 1988, Gaussian, Inc.),
 the Gaussian 86(TM) system (copyright 1986, Carnegie Mellon
 University), and the Gaussian 82(TM) system (copyright 1983,
 Carnegie Mellon University). Gaussian is a federally registered
 trademark of Gaussian, Inc.
  
 This software contains proprietary and confidential information,
 including trade secrets, belonging to Gaussian, Inc.
  
 This software is provided under written license and may be
 used, copied, transmitted, or stored only in accord with that
 written license.
  
 The following legend is applicable only to US Government
 contracts under FAR:
  
                    RESTRICTED RIGHTS LEGEND
  
 Use, reproduction and disclosure by the US Government is
 subject to restrictions as set forth in subparagraphs (a)
 and (c) of the Commercial Computer Software - Restricted
 Rights clause in FAR 52.227-19.
  
 Gaussian, Inc.
 340 Quinnipiac St., Bldg. 40, Wallingford CT 06492
  
  
 ---------------------------------------------------------------
 Warning -- This program may not be used in any manner that
 competes with the business of Gaussian, Inc. or will provide
 assistance to any competitor of Gaussian, Inc.  The licensee
 of this program is prohibited from giving any competitor of
 Gaussian, Inc. access to this program.  By using this program,
 the user acknowledges that Gaussian, Inc. is engaged in the
 business of creating and licensing software in the field of
 computational chemistry and represents and warrants to the
 licensee that it is not a competitor of Gaussian, Inc. and that
 it will not use this program in any manner prohibited above.
 ---------------------------------------------------------------
  

 Cite this work as:
 Gaussian 16, Revision B.01,
 M. J. Frisch, G. W. Trucks, H. B. Schlegel, G. E. Scuseria, 
 M. A. Robb, J. R. Cheeseman, G. Scalmani, V. Barone, 
 G. A. Petersson, H. Nakatsuji, X. Li, M. Caricato, A. V. Marenich, 
 J. Bloino, B. G. Janesko, R. Gomperts, B. Mennucci, H. P. Hratchian, 
 J. V. Ortiz, A. F. Izmaylov, J. L. Sonnenberg, D. Williams-Young, 
 F. Ding, F. Lipparini, F. Egidi, J. Goings, B. Peng, A. Petrone, 
 T. Henderson, D. Ranasinghe, V. G. Zakrzewski, J. Gao, N. Rega, 
 G. Zheng, W. Liang, M. Hada, M. Ehara, K. Toyota, R. Fukuda, 
 J. Hasegawa, M. Ishida, T. Nakajima, Y. Honda, O. Kitao, H. Nakai, 
 T. Vreven, K. Throssell, J. A. Montgomery, Jr., J. E. Peralta, 
 F. Ogliaro, M. J. Bearpark, J. J. Heyd, E. N. Brothers, K. N. Kudin, 
 V. N. Staroverov, T. A. Keith, R. Kobayashi, J. Normand, 
 K. Raghavachari, A. P. Rendell, J. C. Burant, S. S. Iyengar, 
 J. Tomasi, M. Cossi, J. M. Millam, M. Klene, C. Adamo, R. Cammi, 
 J. W. Ochterski, R. L. Martin, K. Morokuma, O. Farkas, 
 J. B. Foresman, and D. J. Fox, Gaussian, Inc., Wallingford CT, 2016.
 
 ******************************************
 Gaussian 16:  ES64L-G16RevB.01 20-Dec-2017
                20-Sep-2025 
 ******************************************
 %nprocs=16
 Will use up to   16 processors via shared memory.
 %mem=40GB
 %chk=MLHE0136.chk
 ----------------------------------------------------------------------
 # opt freq=noraman M08HX/6-311++G** scf=xqc Empiricaldispersion=pfd In
 t(Grid=ultraFine)
 ----------------------------------------------------------------------
 1/18=20,19=15,26=4,38=1/1,3;
 2/9=110,12=2,17=6,18=5,40=1/2;
 3/5=4,6=6,7=1111,11=2,25=1,30=1,71=1,74=-74,75=-5,124=11/1,2,3;
 4//1;
 5/5=2,8=3,13=1,38=5/2,8;
 6/7=2,8=2,9=2,10=2,28=1/1;
 7//1,2,3,16;
 1/18=20,19=15,26=4/3(2);
 2/9=110/2;
 99//99;
 2/9=110/2;
 3/5=4,6=6,7=1111,11=2,25=1,30=1,71=1,74=-74,75=-5,124=11/1,2,3;
 4/5=5,16=3,69=1/1;
 5/5=2,8=3,13=1,38=5/2,8;
 7//1,2,3,16;
 1/18=20,19=15,26=4/3(-5);
 2/9=110/2;
 6/7=2,8=2,9=2,10=2,19=2,28=1/1;
 99/9=1/99;
 --------
 MLHE0136
 --------
 Symbolic Z-matrix:
 Charge =  0 Multiplicity = 1
 C                    -0.9128   -0.1586    0.9078 
 C                    -2.342    -0.0162    0.3526 
 C                     0.1749   -0.0046   -0.1595 
 C                     1.5728   -0.0834    0.4588 
 C                     2.6601    0.1076   -0.5984 
 C                    -2.5646    1.323    -0.3516 
 C                    -2.6389   -1.1639   -0.616 
 C                     4.0506   -0.0039    0.0062 
 H                    -0.807    -1.132     1.4032 
 H                    -0.7636    0.603     1.684 
 H                    -3.0386   -0.086     1.1972 
 H                     0.0804   -0.788    -0.9189 
 H                     0.0789    0.9602   -0.6682 
 H                     1.6779    0.6856    1.2339 
 H                     1.7014   -1.0561    0.9491 
 H                     2.5505   -0.6468   -1.3863 
 H                     2.5507    1.09     -1.0723 
 H                    -2.0115    1.3975   -1.2931 
 H                    -2.2665    2.1566    0.2925 
 H                    -3.6263    1.4513   -0.5903 
 H                    -2.4341   -2.134    -0.1513 
 H                    -2.055    -1.0933   -1.5389 
 H                    -3.6971   -1.1521   -0.9006 
 H                     4.205     0.7572    0.7778 
 H                     4.2039   -0.9887    0.459 
 H                     4.8124    0.1368   -0.7669 
 

 GradGradGradGradGradGradGradGradGradGradGradGradGradGradGradGradGradGrad
 Berny optimization.
 Initialization pass.
                           ----------------------------
                           !    Initial Parameters    !
                           ! (Angstroms and Degrees)  !
 --------------------------                            --------------------------
 ! Name  Definition              Value          Derivative Info.                !
 --------------------------------------------------------------------------------
 ! R1    R(1,2)                  1.5398         estimate D2E/DX2                !
 ! R2    R(1,3)                  1.5316         estimate D2E/DX2                !
 ! R3    R(1,9)                  1.0973         estimate D2E/DX2                !
 ! R4    R(1,10)                 1.0976         estimate D2E/DX2                !
 ! R5    R(2,6)                  1.5293         estimate D2E/DX2                !
 ! R6    R(2,7)                  1.5309         estimate D2E/DX2                !
 ! R7    R(2,11)                 1.097          estimate D2E/DX2                !
 ! R8    R(3,4)                  1.5306         estimate D2E/DX2                !
 ! R9    R(3,12)                 1.0951         estimate D2E/DX2                !
 ! R10   R(3,13)                 1.0949         estimate D2E/DX2                !
 ! R11   R(4,5)                  1.5285         estimate D2E/DX2                !
 ! R12   R(4,14)                 1.0969         estimate D2E/DX2                !
 ! R13   R(4,15)                 1.0968         estimate D2E/DX2                !
 ! R14   R(5,8)                  1.5203         estimate D2E/DX2                !
 ! R15   R(5,16)                 1.0963         estimate D2E/DX2                !
 ! R16   R(5,17)                 1.0962         estimate D2E/DX2                !
 ! R17   R(6,18)                 1.0945         estimate D2E/DX2                !
 ! R18   R(6,19)                 1.0948         estimate D2E/DX2                !
 ! R19   R(6,20)                 1.0957         estimate D2E/DX2                !
 ! R20   R(7,21)                 1.095          estimate D2E/DX2                !
 ! R21   R(7,22)                 1.0944         estimate D2E/DX2                !
 ! R22   R(7,23)                 1.0959         estimate D2E/DX2                !
 ! R23   R(8,24)                 1.0948         estimate D2E/DX2                !
 ! R24   R(8,25)                 1.0947         estimate D2E/DX2                !
 ! R25   R(8,26)                 1.0944         estimate D2E/DX2                !
 ! A1    A(2,1,3)              113.4893         estimate D2E/DX2                !
 ! A2    A(2,1,9)              109.5298         estimate D2E/DX2                !
 ! A3    A(2,1,10)             108.4796         estimate D2E/DX2                !
 ! A4    A(3,1,9)              109.5916         estimate D2E/DX2                !
 ! A5    A(3,1,10)             109.0552         estimate D2E/DX2                !
 ! A6    A(9,1,10)             106.4476         estimate D2E/DX2                !
 ! A7    A(1,2,6)              112.4633         estimate D2E/DX2                !
 ! A8    A(1,2,7)              109.804          estimate D2E/DX2                !
 ! A9    A(1,2,11)             107.8114         estimate D2E/DX2                !
 ! A10   A(6,2,7)              109.6897         estimate D2E/DX2                !
 ! A11   A(6,2,11)             108.5297         estimate D2E/DX2                !
 ! A12   A(7,2,11)             108.4377         estimate D2E/DX2                !
 ! A13   A(1,3,4)              111.2183         estimate D2E/DX2                !
 ! A14   A(1,3,12)             110.4872         estimate D2E/DX2                !
 ! A15   A(1,3,13)             110.4924         estimate D2E/DX2                !
 ! A16   A(4,3,12)             108.7902         estimate D2E/DX2                !
 ! A17   A(4,3,13)             108.248          estimate D2E/DX2                !
 ! A18   A(12,3,13)            107.4937         estimate D2E/DX2                !
 ! A19   A(3,4,5)              111.3366         estimate D2E/DX2                !
 ! A20   A(3,4,14)             109.6864         estimate D2E/DX2                !
 ! A21   A(3,4,15)             109.4702         estimate D2E/DX2                !
 ! A22   A(5,4,14)             109.4496         estimate D2E/DX2                !
 ! A23   A(5,4,15)             109.669          estimate D2E/DX2                !
 ! A24   A(14,4,15)            107.1344         estimate D2E/DX2                !
 ! A25   A(4,5,8)              111.4922         estimate D2E/DX2                !
 ! A26   A(4,5,16)             109.8752         estimate D2E/DX2                !
 ! A27   A(4,5,17)             109.8769         estimate D2E/DX2                !
 ! A28   A(8,5,16)             109.0725         estimate D2E/DX2                !
 ! A29   A(8,5,17)             109.2031         estimate D2E/DX2                !
 ! A30   A(16,5,17)            107.2184         estimate D2E/DX2                !
 ! A31   A(2,6,18)             112.4667         estimate D2E/DX2                !
 ! A32   A(2,6,19)             110.8678         estimate D2E/DX2                !
 ! A33   A(2,6,20)             110.1128         estimate D2E/DX2                !
 ! A34   A(18,6,19)            108.461          estimate D2E/DX2                !
 ! A35   A(18,6,20)            107.1149         estimate D2E/DX2                !
 ! A36   A(19,6,20)            107.6279         estimate D2E/DX2                !
 ! A37   A(2,7,21)             111.0641         estimate D2E/DX2                !
 ! A38   A(2,7,22)             112.441          estimate D2E/DX2                !
 ! A39   A(2,7,23)             110.0916         estimate D2E/DX2                !
 ! A40   A(21,7,22)            108.3762         estimate D2E/DX2                !
 ! A41   A(21,7,23)            107.4793         estimate D2E/DX2                !
 ! A42   A(22,7,23)            107.1876         estimate D2E/DX2                !
 ! A43   A(5,8,24)             110.9952         estimate D2E/DX2                !
 ! A44   A(5,8,25)             111.0108         estimate D2E/DX2                !
 ! A45   A(5,8,26)             110.2595         estimate D2E/DX2                !
 ! A46   A(24,8,25)            108.3094         estimate D2E/DX2                !
 ! A47   A(24,8,26)            108.0788         estimate D2E/DX2                !
 ! A48   A(25,8,26)            108.0808         estimate D2E/DX2                !
 ! D1    D(3,1,2,6)            -57.3035         estimate D2E/DX2                !
 ! D2    D(3,1,2,7)             65.1353         estimate D2E/DX2                !
 ! D3    D(3,1,2,11)          -176.9101         estimate D2E/DX2                !
 ! D4    D(9,1,2,6)            179.8712         estimate D2E/DX2                !
 ! D5    D(9,1,2,7)            -57.69           estimate D2E/DX2                !
 ! D6    D(9,1,2,11)            60.2646         estimate D2E/DX2                !
 ! D7    D(10,1,2,6)            64.067          estimate D2E/DX2                !
 ! D8    D(10,1,2,7)          -173.4942         estimate D2E/DX2                !
 ! D9    D(10,1,2,11)          -55.5396         estimate D2E/DX2                !
 ! D10   D(2,1,3,4)            177.084          estimate D2E/DX2                !
 ! D11   D(2,1,3,12)           -61.9908         estimate D2E/DX2                !
 ! D12   D(2,1,3,13)            56.8394         estimate D2E/DX2                !
 ! D13   D(9,1,3,4)            -60.1247         estimate D2E/DX2                !
 ! D14   D(9,1,3,12)            60.8004         estimate D2E/DX2                !
 ! D15   D(9,1,3,13)           179.6306         estimate D2E/DX2                !
 ! D16   D(10,1,3,4)            56.0364         estimate D2E/DX2                !
 ! D17   D(10,1,3,12)          176.9615         estimate D2E/DX2                !
 ! D18   D(10,1,3,13)          -64.2083         estimate D2E/DX2                !
 ! D19   D(1,2,6,18)            69.5336         estimate D2E/DX2                !
 ! D20   D(1,2,6,19)           -52.0921         estimate D2E/DX2                !
 ! D21   D(1,2,6,20)          -171.0878         estimate D2E/DX2                !
 ! D22   D(7,2,6,18)           -52.9696         estimate D2E/DX2                !
 ! D23   D(7,2,6,19)          -174.5953         estimate D2E/DX2                !
 ! D24   D(7,2,6,20)            66.409          estimate D2E/DX2                !
 ! D25   D(11,2,6,18)         -171.2782         estimate D2E/DX2                !
 ! D26   D(11,2,6,19)           67.096          estimate D2E/DX2                !
 ! D27   D(11,2,6,20)          -51.8996         estimate D2E/DX2                !
 ! D28   D(1,2,7,21)            52.8426         estimate D2E/DX2                !
 ! D29   D(1,2,7,22)           -68.7971         estimate D2E/DX2                !
 ! D30   D(1,2,7,23)           171.7637         estimate D2E/DX2                !
 ! D31   D(6,2,7,21)           176.9117         estimate D2E/DX2                !
 ! D32   D(6,2,7,22)            55.272          estimate D2E/DX2                !
 ! D33   D(6,2,7,23)           -64.1672         estimate D2E/DX2                !
 ! D34   D(11,2,7,21)          -64.7226         estimate D2E/DX2                !
 ! D35   D(11,2,7,22)          173.6377         estimate D2E/DX2                !
 ! D36   D(11,2,7,23)           54.1985         estimate D2E/DX2                !
 ! D37   D(1,3,4,5)           -178.469          estimate D2E/DX2                !
 ! D38   D(1,3,4,14)           -57.175          estimate D2E/DX2                !
 ! D39   D(1,3,4,15)            60.107          estimate D2E/DX2                !
 ! D40   D(12,3,4,5)            59.6145         estimate D2E/DX2                !
 ! D41   D(12,3,4,14)         -179.0915         estimate D2E/DX2                !
 ! D42   D(12,3,4,15)          -61.8095         estimate D2E/DX2                !
 ! D43   D(13,3,4,5)           -56.906          estimate D2E/DX2                !
 ! D44   D(13,3,4,14)           64.388          estimate D2E/DX2                !
 ! D45   D(13,3,4,15)         -178.33           estimate D2E/DX2                !
 ! D46   D(3,4,5,8)           -178.6081         estimate D2E/DX2                !
 ! D47   D(3,4,5,16)           -57.5591         estimate D2E/DX2                !
 ! D48   D(3,4,5,17)            60.1771         estimate D2E/DX2                !
 ! D49   D(14,4,5,8)            59.9598         estimate D2E/DX2                !
 ! D50   D(14,4,5,16)         -178.9912         estimate D2E/DX2                !
 ! D51   D(14,4,5,17)          -61.255          estimate D2E/DX2                !
 ! D52   D(15,4,5,8)           -57.2999         estimate D2E/DX2                !
 ! D53   D(15,4,5,16)           63.749          estimate D2E/DX2                !
 ! D54   D(15,4,5,17)         -178.5148         estimate D2E/DX2                !
 ! D55   D(4,5,8,24)           -60.2123         estimate D2E/DX2                !
 ! D56   D(4,5,8,25)            60.3084         estimate D2E/DX2                !
 ! D57   D(4,5,8,26)          -179.9457         estimate D2E/DX2                !
 ! D58   D(16,5,8,24)          178.2715         estimate D2E/DX2                !
 ! D59   D(16,5,8,25)          -61.2077         estimate D2E/DX2                !
 ! D60   D(16,5,8,26)           58.5382         estimate D2E/DX2                !
 ! D61   D(17,5,8,24)           61.3941         estimate D2E/DX2                !
 ! D62   D(17,5,8,25)         -178.0851         estimate D2E/DX2                !
 ! D63   D(17,5,8,26)          -58.3392         estimate D2E/DX2                !
 --------------------------------------------------------------------------------
 Trust Radius=3.00D-01 FncErr=1.00D-07 GrdErr=1.00D-06 EigMax=2.50D+02 EigMin=1.00D-04
 Number of steps in this run=    146 maximum allowed number of steps=    156.
 GradGradGradGradGradGradGradGradGradGradGradGradGradGradGradGradGradGrad

                          Input orientation:                          
 ---------------------------------------------------------------------
 Center     Atomic      Atomic             Coordinates (Angstroms)
 Number     Number       Type             X           Y           Z
 ---------------------------------------------------------------------
      1          6           0       -0.912800   -0.158600    0.907800
      2          6           0       -2.342000   -0.016200    0.352600
      3          6           0        0.174900   -0.004600   -0.159500
      4          6           0        1.572800   -0.083400    0.458800
      5          6           0        2.660100    0.107600   -0.598400
      6          6           0       -2.564600    1.323000   -0.351600
      7          6           0       -2.638900   -1.163900   -0.616000
      8          6           0        4.050600   -0.003900    0.006200
      9          1           0       -0.807000   -1.132000    1.403200
     10          1           0       -0.763600    0.603000    1.684000
     11          1           0       -3.038600   -0.086000    1.197200
     12          1           0        0.080400   -0.788000   -0.918900
     13          1           0        0.078900    0.960200   -0.668200
     14          1           0        1.677900    0.685600    1.233900
     15          1           0        1.701400   -1.056100    0.949100
     16          1           0        2.550500   -0.646800   -1.386300
     17          1           0        2.550700    1.090000   -1.072300
     18          1           0       -2.011500    1.397500   -1.293100
     19          1           0       -2.266500    2.156600    0.292500
     20          1           0       -3.626300    1.451300   -0.590300
     21          1           0       -2.434100   -2.134000   -0.151300
     22          1           0       -2.055000   -1.093300   -1.538900
     23          1           0       -3.697100   -1.152100   -0.900600
     24          1           0        4.205000    0.757200    0.777800
     25          1           0        4.203900   -0.988700    0.459000
     26          1           0        4.812400    0.136800   -0.766900
 ---------------------------------------------------------------------
                    Distance matrix (angstroms):
                    1          2          3          4          5
     1  C    0.000000
     2  C    1.539850   0.000000
     3  C    1.531645   2.568495   0.000000
     4  C    2.526947   3.916817   1.530565   0.000000
     5  C    3.886530   5.093204   2.526151   1.528520   0.000000
     6  C    2.551406   1.529348   3.050293   4.444411   5.369879
     7  C    2.512373   1.530866   3.077310   4.478961   5.449442
     8  C    5.046995   6.401990   3.879241   2.520052   1.520350
     9  H    1.097325   2.169100   2.162681   2.766749   4.190918
    10  H    1.097625   2.155779   2.156027   2.725991   4.144453
    11  H    2.146637   1.097029   3.489103   4.670145   5.978030
    12  H    2.172423   2.842606   1.095141   2.149832   2.749486
    13  H    2.172316   2.802882   1.094911   2.142654   2.719263
    14  H    2.744220   4.174783   2.162625   1.096899   2.157805
    15  H    2.764282   4.217379   2.159826   1.096849   2.160569
    16  H    4.182784   5.230486   2.749715   2.162802   1.096320
    17  H    4.180386   5.214646   2.770520   2.162735   1.096202
    18  H    2.910764   2.194563   2.833951   4.255517   4.895947
    19  H    2.751590   2.174942   3.291736   4.448087   5.409574
    20  H    3.492730   2.166112   4.093208   5.521463   6.428407
    21  H    2.708921   2.178870   3.367684   4.542293   5.583506
    22  H    2.857381   2.195515   2.839096   4.262820   4.955691
    23  H    3.465498   2.167274   4.105894   5.546344   6.487847
    24  H    5.200718   6.606221   4.207205   2.781519   2.168553
    25  H    5.202990   6.618601   4.193308   2.782491   2.168706
    26  H    5.972420   7.243075   4.679245   3.470711   2.159083
                    6          7          8          9         10
     6  C    0.000000
     7  C    2.502019   0.000000
     8  C    6.756445   6.817781   0.000000
     9  H    3.492206   2.726544   5.178851   0.000000
    10  H    2.811702   3.453793   5.134186   1.758112   0.000000
    11  H    2.146797   2.146933   7.189018   2.473174   2.426380
    12  H    3.431352   2.761819   4.151278   2.509574   3.069577
    13  H    2.686997   3.449777   4.142307   3.074543   2.523934
    14  H    4.573718   5.047528   2.759051   3.083352   2.484016
    15  H    5.054769   4.615123   2.741337   2.550302   3.060868
    16  H    5.578079   5.271682   2.145385   4.391985   4.687430
    17  H    5.171073   5.676286   2.146970   4.726472   4.338081
    18  H    1.094483   2.722658   6.356191   3.888345   3.324396
    19  H    1.094814   3.462625   6.682476   3.765459   2.570730
    20  H    1.095740   2.795513   7.836339   4.312300   3.753279
    21  H    3.465256   1.094981   6.827406   2.463317   3.694599
    22  H    2.740051   1.094380   6.391594   3.196084   3.864225
    23  H    2.776703   1.095867   7.884637   3.696022   4.285552
    24  H    6.886447   7.243775   1.094751   5.392620   5.052916
    25  H    7.198168   6.928942   1.094696   5.101095   5.358189
    26  H    7.483293   7.565478   1.094449   6.156041   6.108685
                   11         12         13         14         15
    11  H    0.000000
    12  H    3.833907   0.000000
    13  H    3.780616   1.766085   0.000000
    14  H    4.779339   3.059093   2.500038   0.000000
    15  H    4.844610   2.487759   3.051824   1.764988   0.000000
    16  H    6.182799   2.517895   3.034291   3.066296   2.518450
    17  H    6.146046   3.106895   2.507975   2.498775   3.068080
    18  H    3.075272   3.048357   2.225197   4.528157   4.983296
    19  H    2.538479   3.955515   2.802716   4.313742   5.147504
    20  H    2.429782   4.343048   3.738416   5.661143   6.086148
    21  H    2.525505   2.953580   4.019506   5.174695   4.413061
    22  H    3.077071   2.244447   3.086828   4.978699   4.505782
    23  H    2.443554   3.795051   4.332897   6.068266   5.707399
    24  H    7.304562   4.720038   4.376851   2.568927   3.096032
    25  H    7.335776   4.352257   4.699406   3.128007   2.550931
    26  H    8.096019   4.823918   4.805596   3.758919   3.747798
                   16         17         18         19         20
    16  H    0.000000
    17  H    1.764956   0.000000
    18  H    4.999969   4.577879   0.000000
    19  H    5.820731   5.119153   1.776340   0.000000
    20  H    6.571796   6.206302   1.761931   1.768005   0.000000
    21  H    5.346328   6.007549   3.735477   4.316746   3.803740
    22  H    4.629609   5.118299   2.503277   3.736390   3.137485
    23  H    6.286791   6.640143   3.081520   3.797051   2.622783
    24  H    3.064623   2.504064   6.583577   6.638836   7.980146
    25  H    2.501152   3.065770   6.884403   7.196298   8.268414
    26  H    2.472626   2.473287   6.959300   7.437254   8.542292
                   21         22         23         24         25
    21  H    0.000000
    22  H    1.775446   0.000000
    23  H    1.766564   1.762775   0.000000
    24  H    7.300679   6.926691   8.300942   0.000000
    25  H    6.763669   6.570873   8.018791   1.774768   0.000000
    26  H    7.618875   7.019281   8.607597   1.771984   1.771963
                   26
    26  H    0.000000
 Stoichiometry    C8H18
 Framework group  C1[X(C8H18)]
 Deg. of freedom    72
 Full point group                 C1      NOp   1
 Largest Abelian subgroup         C1      NOp   1
 Largest concise Abelian subgroup C1      NOp   1
                         Standard orientation:                         
 ---------------------------------------------------------------------
 Center     Atomic      Atomic             Coordinates (Angstroms)
 Number     Number       Type             X           Y           Z
 ---------------------------------------------------------------------
      1          6           0       -0.921092   -0.159697    0.936838
      2          6           0       -2.355818   -0.020058    0.395359
      3          6           0        0.155919   -0.007229   -0.141465
      4          6           0        1.559902   -0.083145    0.463264
      5          6           0        2.636575    0.106348   -0.605025
      6          6           0       -2.586672    1.317202   -0.309869
      7          6           0       -2.661058   -1.170407   -0.567489
      8          6           0        4.033057   -0.002310   -0.013844
      9          1           0       -0.809451   -1.131782    1.433537
     10          1           0       -0.765045    0.603939    1.709684
     11          1           0       -3.044019   -0.088485    1.246928
     12          1           0        0.054756   -0.792570   -0.897996
     13          1           0        0.053956    0.956234   -0.651538
     14          1           0        1.671833    0.687845    1.235425
     15          1           0        1.694291   -1.054520    0.954637
     16          1           0        2.520004   -0.650078   -1.389977
     17          1           0        2.521536    1.087481   -1.080211
     18          1           0       -2.042920    1.389951   -1.256935
     19          1           0       -2.283102    2.152662    0.329246
     20          1           0       -3.650794    1.443874   -0.538440
     21          1           0       -2.450726   -2.139170   -0.102469
     22          1           0       -2.086320   -1.101482   -1.496248
     23          1           0       -3.722013   -1.160343   -0.841709
     24          1           0        4.194259    0.760820    0.754353
     25          1           0        4.191789   -0.985852    0.439818
     26          1           0        4.787086    0.137256   -0.794728
 ---------------------------------------------------------------------
 Rotational constants (GHZ):           4.7624488           0.6927878           0.6767243
 Standard basis: 6-311++G(d,p) (5D, 7F)
 There are   310 symmetry adapted cartesian basis functions of A   symmetry.
 There are   302 symmetry adapted basis functions of A   symmetry.
   302 basis functions,   450 primitive gaussians,   310 cartesian basis functions
    33 alpha electrons       33 beta electrons
       nuclear repulsion energy       393.1534032906 Hartrees.
 NAtoms=   26 NActive=   26 NUniq=   26 SFac= 1.00D+00 NAtFMM=   60 NAOKFM=F Big=F
 Integral buffers will be    131072 words long.
 Raffenetti 2 integral format.
 Two-electron integral symmetry is turned on.
 R6APFD:  NTU= -4 IXU= 1 FactS= 1.050
 Nuclear repulsion after empirical dispersion term =      393.1361177344 Hartrees.
 One-electron integrals computed using PRISM.
 NBasis=   302 RedAO= T EigKep=  5.04D-06  NBF=   302
 NBsUse=   302 1.00D-06 EigRej= -1.00D+00 NBFU=   302
 ExpMin= 3.60D-02 ExpMax= 4.56D+03 ExpMxC= 6.82D+02 IAcc=3 IRadAn=         5 AccDes= 0.00D+00
 Harris functional with IExCor= 1009 and IRadAn=       5 diagonalized for initial guess.
 HarFok:  IExCor= 1009 AccDes= 0.00D+00 IRadAn=         5 IDoV= 1 UseB2=F ITyADJ=14
 ICtDFT=  3500011 ScaDFX=  1.000000  1.000000  1.000000  1.000000
 FoFCou: FMM=F IPFlag=           0 FMFlag=      100000 FMFlg1=           0
         NFxFlg=           0 DoJE=T BraDBF=F KetDBF=T FulRan=T
         wScrn=  0.000000 ICntrl=       500 IOpCl=  0 I1Cent=   200000004 NGrid=           0
         NMat0=    1 NMatS0=      1 NMatT0=    0 NMatD0=    1 NMtDS0=    0 NMtDT0=    0
 Petite list used in FoFCou.
 Requested convergence on RMS density matrix=1.00D-08 within  32 cycles.
 Requested convergence on MAX density matrix=1.00D-06.
 Requested convergence on             energy=1.00D-06.
 No special actions if energy rises.
 SCF Done:  E(RM08HX) =  -315.733700997     A.U. after   12 cycles
            NFock= 12  Conv=0.33D-08     -V/T= 2.0060
 QCSCF skips out because SCF is already converged.

 **********************************************************************

            Population analysis using the SCF Density.

 **********************************************************************

 Orbital symmetries:
       Occupied  (A) (A) (A) (A) (A) (A) (A) (A) (A) (A) (A) (A)
                 (A) (A) (A) (A) (A) (A) (A) (A) (A) (A) (A) (A)
                 (A) (A) (A) (A) (A) (A) (A) (A) (A)
       Virtual   (A) (A) (A) (A) (A) (A) (A) (A) (A) (A) (A) (A)
                 (A) (A) (A) (A) (A) (A) (A) (A) (A) (A) (A) (A)
                 (A) (A) (A) (A) (A) (A) (A) (A) (A) (A) (A) (A)
                 (A) (A) (A) (A) (A) (A) (A) (A) (A) (A) (A) (A)
                 (A) (A) (A) (A) (A) (A) (A) (A) (A) (A) (A) (A)
                 (A) (A) (A) (A) (A) (A) (A) (A) (A) (A) (A) (A)
                 (A) (A) (A) (A) (A) (A) (A) (A) (A) (A) (A) (A)
                 (A) (A) (A) (A) (A) (A) (A) (A) (A) (A) (A) (A)
                 (A) (A) (A) (A) (A) (A) (A) (A) (A) (A) (A) (A)
                 (A) (A) (A) (A) (A) (A) (A) (A) (A) (A) (A) (A)
                 (A) (A) (A) (A) (A) (A) (A) (A) (A) (A) (A) (A)
                 (A) (A) (A) (A) (A) (A) (A) (A) (A) (A) (A) (A)
                 (A) (A) (A) (A) (A) (A) (A) (A) (A) (A) (A) (A)
                 (A) (A) (A) (A) (A) (A) (A) (A) (A) (A) (A) (A)
                 (A) (A) (A) (A) (A) (A) (A) (A) (A) (A) (A) (A)
                 (A) (A) (A) (A) (A) (A) (A) (A) (A) (A) (A) (A)
                 (A) (A) (A) (A) (A) (A) (A) (A) (A) (A) (A) (A)
                 (A) (A) (A) (A) (A) (A) (A) (A) (A) (A) (A) (A)
                 (A) (A) (A) (A) (A) (A) (A) (A) (A) (A) (A) (A)
                 (A) (A) (A) (A) (A) (A) (A) (A) (A) (A) (A) (A)
                 (A) (A) (A) (A) (A) (A) (A) (A) (A) (A) (A) (A)
                 (A) (A) (A) (A) (A) (A) (A) (A) (A) (A) (A) (A)
                 (A) (A) (A) (A) (A)
 The electronic state is 1-A.
 Alpha  occ. eigenvalues --  -10.52781 -10.51762 -10.51654 -10.51631 -10.51569
 Alpha  occ. eigenvalues --  -10.51032 -10.50959 -10.50904  -0.92565  -0.89500
 Alpha  occ. eigenvalues --   -0.83725  -0.77551  -0.76541  -0.69977  -0.66223
 Alpha  occ. eigenvalues --   -0.62496  -0.55368  -0.53700  -0.51409  -0.50662
 Alpha  occ. eigenvalues --   -0.48403  -0.47497  -0.46564  -0.44675  -0.43163
 Alpha  occ. eigenvalues --   -0.42664  -0.40586  -0.40060  -0.39676  -0.38479
 Alpha  occ. eigenvalues --   -0.37888  -0.37402  -0.35506
 Alpha virt. eigenvalues --   -0.02752  -0.01744  -0.01454  -0.01325   0.00003
 Alpha virt. eigenvalues --    0.00561   0.00716   0.01761   0.01996   0.02388
 Alpha virt. eigenvalues --    0.02913   0.03191   0.04344   0.04877   0.05583
 Alpha virt. eigenvalues --    0.06021   0.06291   0.06509   0.06638   0.08389
 Alpha virt. eigenvalues --    0.08794   0.10322   0.10494   0.10864   0.11122
 Alpha virt. eigenvalues --    0.11620   0.12236   0.12466   0.12931   0.13181
 Alpha virt. eigenvalues --    0.13323   0.13947   0.14040   0.14277   0.14557
 Alpha virt. eigenvalues --    0.14938   0.15834   0.15949   0.16292   0.17039
 Alpha virt. eigenvalues --    0.17221   0.17533   0.18426   0.19047   0.19086
 Alpha virt. eigenvalues --    0.19254   0.19737   0.19965   0.20893   0.21774
 Alpha virt. eigenvalues --    0.22521   0.22948   0.23607   0.24653   0.24830
 Alpha virt. eigenvalues --    0.25784   0.26598   0.27649   0.27848   0.29388
 Alpha virt. eigenvalues --    0.30207   0.30390   0.31470   0.31544   0.32231
 Alpha virt. eigenvalues --    0.32578   0.32996   0.33106   0.34284   0.35477
 Alpha virt. eigenvalues --    0.36458   0.36805   0.38190   0.38875   0.42963
 Alpha virt. eigenvalues --    0.44218   0.45231   0.46645   0.47359   0.48860
 Alpha virt. eigenvalues --    0.51555   0.52064   0.53337   0.54391   0.54512
 Alpha virt. eigenvalues --    0.56198   0.59792   0.60450   0.60938   0.64371
 Alpha virt. eigenvalues --    0.65583   0.68407   0.68586   0.69383   0.69505
 Alpha virt. eigenvalues --    0.70302   0.71168   0.71203   0.71512   0.72386
 Alpha virt. eigenvalues --    0.72580   0.73572   0.73699   0.74239   0.74924
 Alpha virt. eigenvalues --    0.75631   0.77227   0.77987   0.78620   0.79231
 Alpha virt. eigenvalues --    0.79530   0.79668   0.79993   0.82173   0.83288
 Alpha virt. eigenvalues --    0.83750   0.87419   0.91434   0.94821   0.98240
 Alpha virt. eigenvalues --    1.00061   1.01548   1.05696   1.06143   1.08164
 Alpha virt. eigenvalues --    1.10265   1.12350   1.15808   1.19286   1.21517
 Alpha virt. eigenvalues --    1.25722   1.26860   1.30641   1.31664   1.33828
 Alpha virt. eigenvalues --    1.37010   1.47480   1.47906   1.48845   1.49773
 Alpha virt. eigenvalues --    1.50994   1.51605   1.52710   1.56555   1.58434
 Alpha virt. eigenvalues --    1.59575   1.60501   1.60962   1.61682   1.62114
 Alpha virt. eigenvalues --    1.62418   1.64419   1.64933   1.66234   1.66451
 Alpha virt. eigenvalues --    1.68018   1.69358   1.69668   1.70121   1.71103
 Alpha virt. eigenvalues --    1.71526   1.74824   1.76483   1.77093   1.77855
 Alpha virt. eigenvalues --    1.78351   1.78897   1.81098   1.82299   1.83075
 Alpha virt. eigenvalues --    1.84592   1.86484   1.90121   1.91165   1.92632
 Alpha virt. eigenvalues --    1.97177   2.01243   2.03895   2.04524   2.10207
 Alpha virt. eigenvalues --    2.10566   2.10751   2.12193   2.15753   2.17243
 Alpha virt. eigenvalues --    2.19832   2.22187   2.22921   2.23991   2.27116
 Alpha virt. eigenvalues --    2.29866   2.31930   2.33274   2.37924   2.38304
 Alpha virt. eigenvalues --    2.40821   2.41837   2.45173   2.46196   2.48678
 Alpha virt. eigenvalues --    2.49134   2.50402   2.51858   2.53777   2.54249
 Alpha virt. eigenvalues --    2.55363   2.56977   2.57237   2.58758   2.60105
 Alpha virt. eigenvalues --    2.60681   2.61596   2.62430   2.63540   2.65049
 Alpha virt. eigenvalues --    2.66919   2.67278   2.68391   2.71019   2.71745
 Alpha virt. eigenvalues --    2.73537   2.73978   2.74743   2.76054   2.80174
 Alpha virt. eigenvalues --    2.80988   2.82525   2.84041   2.84650   2.87339
 Alpha virt. eigenvalues --    2.89581   2.92056   2.94175   2.95211   2.96556
 Alpha virt. eigenvalues --    2.98585   3.01756   3.11173   3.13454   3.21030
 Alpha virt. eigenvalues --    3.26564   3.41281   3.51992   3.53633   3.79645
 Alpha virt. eigenvalues --    3.81839   3.82889   3.84678   3.85130   3.86286
 Alpha virt. eigenvalues --    3.87127   3.87263   3.88542   3.95399   4.09958
 Alpha virt. eigenvalues --    4.14792   4.22069   4.31671   4.37599   4.41328
 Alpha virt. eigenvalues --    4.46600  23.91162  23.95333  23.96923  23.98541
 Alpha virt. eigenvalues --   24.00414  24.04232  24.04587  24.05835
          Condensed to atoms (all electrons):
               1          2          3          4          5          6
     1  C    8.379395  -1.760442  -1.175146   0.451705  -0.167700   0.330757
     2  C   -1.760442   7.611197   0.606072  -0.459214  -0.140740  -0.297581
     3  C   -1.175146   0.606072   6.942127  -0.834513  -0.074493  -0.101061
     4  C    0.451705  -0.459214  -0.834513   7.147724  -0.817461   0.077623
     5  C   -0.167700  -0.140740  -0.074493  -0.817461   6.973955  -0.006283
     6  C    0.330757  -0.297581  -0.101061   0.077623  -0.006283   5.970036
     7  C    0.281027  -0.312706  -0.060572   0.091848  -0.004244  -0.178723
     8  C   -0.079073  -0.001378  -0.106342   0.217503  -0.351988  -0.000011
     9  H    0.465492   0.016286  -0.087983  -0.010995   0.002078  -0.005269
    10  H    0.457981   0.013953  -0.082194  -0.012454  -0.001757  -0.029352
    11  H   -0.183547   0.565656   0.010553  -0.009844  -0.003114  -0.065349
    12  H   -0.084591   0.024708   0.508463  -0.097173   0.040284  -0.008379
    13  H   -0.094360   0.016353   0.501745  -0.090848   0.050713  -0.018081
    14  H    0.014006  -0.018595  -0.084983   0.494504  -0.060993   0.006468
    15  H    0.010129  -0.014643  -0.083608   0.499995  -0.065575  -0.002214
    16  H    0.007633   0.000253   0.011048  -0.070826   0.460449   0.004455
    17  H    0.000279   0.003005  -0.002152  -0.057054   0.456278  -0.005408
    18  H   -0.118807   0.147965   0.027074  -0.005968  -0.007647   0.324222
    19  H    0.021010  -0.064577  -0.002035  -0.008926   0.001900   0.408221
    20  H    0.029712  -0.128717   0.016107   0.002689  -0.001369   0.462204
    21  H    0.024938  -0.062414  -0.008018  -0.006432   0.001469   0.020810
    22  H   -0.127560   0.153178   0.031553  -0.008173  -0.006827  -0.040529
    23  H    0.040822  -0.132929   0.011766   0.002311  -0.001656  -0.009696
    24  H   -0.002191   0.000293  -0.014148  -0.035400  -0.011570   0.000788
    25  H   -0.004730   0.000618  -0.014461  -0.037812  -0.007636  -0.000836
    26  H    0.001496  -0.001202   0.006590   0.049856  -0.063751  -0.000095
               7          8          9         10         11         12
     1  C    0.281027  -0.079073   0.465492   0.457981  -0.183547  -0.084591
     2  C   -0.312706  -0.001378   0.016286   0.013953   0.565656   0.024708
     3  C   -0.060572  -0.106342  -0.087983  -0.082194   0.010553   0.508463
     4  C    0.091848   0.217503  -0.010995  -0.012454  -0.009844  -0.097173
     5  C   -0.004244  -0.351988   0.002078  -0.001757  -0.003114   0.040284
     6  C   -0.178723  -0.000011  -0.005269  -0.029352  -0.065349  -0.008379
     7  C    5.957818   0.000948  -0.039110  -0.008532  -0.058164  -0.013684
     8  C    0.000948   6.102277  -0.001529  -0.002566  -0.000504  -0.005066
     9  H   -0.039110  -0.001529   0.475014  -0.027509  -0.005218  -0.004002
    10  H   -0.008532  -0.002566  -0.027509   0.482799  -0.004277   0.002407
    11  H   -0.058164  -0.000504  -0.005218  -0.004277   0.459641  -0.000799
    12  H   -0.013684  -0.005066  -0.004002   0.002407  -0.000799   0.619415
    13  H   -0.007518  -0.005946   0.002135  -0.002344  -0.001695  -0.110130
    14  H   -0.000565   0.010571   0.000906   0.001077   0.000511   0.016076
    15  H    0.006173   0.011272  -0.001103   0.000056   0.000276  -0.037091
    16  H   -0.004226  -0.064116  -0.000497   0.001108   0.000001  -0.000407
    17  H    0.003348  -0.050987   0.000908  -0.000221  -0.000019  -0.000374
    18  H   -0.038010   0.000465  -0.002133   0.006517   0.010161   0.005348
    19  H    0.021991   0.000067   0.004377  -0.014185  -0.001670   0.002028
    20  H   -0.010514   0.000074  -0.000623  -0.002357  -0.014504  -0.003009
    21  H    0.407825  -0.000078  -0.012265   0.005406  -0.002453  -0.004102
    22  H    0.327119   0.000610   0.006280  -0.001396   0.009720  -0.015886
    23  H    0.457947   0.000013  -0.002723  -0.001064  -0.013406   0.004759
    24  H   -0.000767   0.419781  -0.000297   0.000746  -0.000013   0.000551
    25  H    0.000578   0.420741   0.000760  -0.000395  -0.000023   0.001542
    26  H   -0.000029   0.363917   0.000019   0.000016  -0.000010   0.001200
              13         14         15         16         17         18
     1  C   -0.094360   0.014006   0.010129   0.007633   0.000279  -0.118807
     2  C    0.016353  -0.018595  -0.014643   0.000253   0.003005   0.147965
     3  C    0.501745  -0.084983  -0.083608   0.011048  -0.002152   0.027074
     4  C   -0.090848   0.494504   0.499995  -0.070826  -0.057054  -0.005968
     5  C    0.050713  -0.060993  -0.065575   0.460449   0.456278  -0.007647
     6  C   -0.018081   0.006468  -0.002214   0.004455  -0.005408   0.324222
     7  C   -0.007518  -0.000565   0.006173  -0.004226   0.003348  -0.038010
     8  C   -0.005946   0.010571   0.011272  -0.064116  -0.050987   0.000465
     9  H    0.002135   0.000906  -0.001103  -0.000497   0.000908  -0.002133
    10  H   -0.002344   0.001077   0.000056   0.001108  -0.000221   0.006517
    11  H   -0.001695   0.000511   0.000276   0.000001  -0.000019   0.010161
    12  H   -0.110130   0.016076  -0.037091  -0.000407  -0.000374   0.005348
    13  H    0.631149  -0.036228   0.016862  -0.003278   0.001890  -0.015042
    14  H   -0.036228   0.558430  -0.082222   0.004654  -0.009716   0.001297
    15  H    0.016862  -0.082222   0.557357  -0.007695   0.004580  -0.000151
    16  H   -0.003278   0.004654  -0.007695   0.536870  -0.060861   0.000031
    17  H    0.001890  -0.009716   0.004580  -0.060861   0.533045   0.000719
    18  H   -0.015042   0.001297  -0.000151   0.000031   0.000719   0.553260
    19  H   -0.005770   0.000440  -0.000252  -0.000284   0.000375  -0.047887
    20  H    0.005504  -0.000021   0.000077   0.000196  -0.000204  -0.050966
    21  H    0.001582  -0.000499   0.000629   0.000342  -0.000191  -0.000519
    22  H    0.007647  -0.000235   0.001504   0.000621  -0.000004  -0.001523
    23  H   -0.003146   0.000072  -0.000046  -0.000127   0.000148   0.004953
    24  H    0.001162  -0.003260   0.003819   0.011098  -0.021471  -0.000146
    25  H    0.000951   0.004976  -0.003434  -0.021147   0.010342   0.000094
    26  H    0.001582  -0.001877  -0.001610  -0.004497  -0.003681  -0.000038
              19         20         21         22         23         24
     1  C    0.021010   0.029712   0.024938  -0.127560   0.040822  -0.002191
     2  C   -0.064577  -0.128717  -0.062414   0.153178  -0.132929   0.000293
     3  C   -0.002035   0.016107  -0.008018   0.031553   0.011766  -0.014148
     4  C   -0.008926   0.002689  -0.006432  -0.008173   0.002311  -0.035400
     5  C    0.001900  -0.001369   0.001469  -0.006827  -0.001656  -0.011570
     6  C    0.408221   0.462204   0.020810  -0.040529  -0.009696   0.000788
     7  C    0.021991  -0.010514   0.407825   0.327119   0.457947  -0.000767
     8  C    0.000067   0.000074  -0.000078   0.000610   0.000013   0.419781
     9  H    0.004377  -0.000623  -0.012265   0.006280  -0.002723  -0.000297
    10  H   -0.014185  -0.002357   0.005406  -0.001396  -0.001064   0.000746
    11  H   -0.001670  -0.014504  -0.002453   0.009720  -0.013406  -0.000013
    12  H    0.002028  -0.003009  -0.004102  -0.015886   0.004759   0.000551
    13  H   -0.005770   0.005504   0.001582   0.007647  -0.003146   0.001162
    14  H    0.000440  -0.000021  -0.000499  -0.000235   0.000072  -0.003260
    15  H   -0.000252   0.000077   0.000629   0.001504  -0.000046   0.003819
    16  H   -0.000284   0.000196   0.000342   0.000621  -0.000127   0.011098
    17  H    0.000375  -0.000204  -0.000191  -0.000004   0.000148  -0.021471
    18  H   -0.047887  -0.050966  -0.000519  -0.001523   0.004953  -0.000146
    19  H    0.521659  -0.022979  -0.003888  -0.001029   0.001733  -0.000052
    20  H   -0.022979   0.502565   0.001678   0.005066  -0.005347   0.000028
    21  H   -0.003888   0.001678   0.525996  -0.048551  -0.023733   0.000035
    22  H   -0.001029   0.005066  -0.048551   0.556568  -0.051625   0.000090
    23  H    0.001733  -0.005347  -0.023733  -0.051625   0.507341  -0.000021
    24  H   -0.000052   0.000028   0.000035   0.000090  -0.000021   0.560899
    25  H    0.000035  -0.000026  -0.000042  -0.000149   0.000022  -0.071656
    26  H    0.000007  -0.000016   0.000008  -0.000047  -0.000015  -0.023664
              25         26
     1  C   -0.004730   0.001496
     2  C    0.000618  -0.001202
     3  C   -0.014461   0.006590
     4  C   -0.037812   0.049856
     5  C   -0.007636  -0.063751
     6  C   -0.000836  -0.000095
     7  C    0.000578  -0.000029
     8  C    0.420741   0.363917
     9  H    0.000760   0.000019
    10  H   -0.000395   0.000016
    11  H   -0.000023  -0.000010
    12  H    0.001542   0.001200
    13  H    0.000951   0.001582
    14  H    0.004976  -0.001877
    15  H   -0.003434  -0.001610
    16  H   -0.021147  -0.004497
    17  H    0.010342  -0.003681
    18  H    0.000094  -0.000038
    19  H    0.000035   0.000007
    20  H   -0.000026  -0.000016
    21  H   -0.000042   0.000008
    22  H   -0.000149  -0.000047
    23  H    0.000022  -0.000015
    24  H   -0.071656  -0.023664
    25  H    0.559249  -0.022480
    26  H   -0.022480   0.491223
 Mulliken charges:
               1
     1  C   -0.718236
     2  C    0.235602
     3  C    0.058611
     4  C   -0.472667
     5  C   -0.192320
     6  C   -0.836717
     7  C   -0.819258
     8  C   -0.878655
     9  H    0.227002
    10  H    0.218539
    11  H    0.308089
    12  H    0.157912
    13  H    0.155110
    14  H    0.185205
    15  H    0.186918
    16  H    0.199203
    17  H    0.197423
    18  H    0.206732
    19  H    0.189688
    20  H    0.214751
    21  H    0.182465
    22  H    0.203577
    23  H    0.213645
    24  H    0.185365
    25  H    0.184918
    26  H    0.207098
 Sum of Mulliken charges =  -0.00000
 Mulliken charges with hydrogens summed into heavy atoms:
               1
     1  C   -0.272695
     2  C    0.543690
     3  C    0.371633
     4  C   -0.100544
     5  C    0.204307
     6  C   -0.225546
     7  C   -0.219571
     8  C   -0.301274
 Electronic spatial extent (au):  <R**2>=           1852.4532
 Charge=              0.0000 electrons
 Dipole moment (field-independent basis, Debye):
    X=             -0.0866    Y=              0.0168    Z=              0.0350  Tot=              0.0949
 Quadrupole moment (field-independent basis, Debye-Ang):
   XX=            -56.9058   YY=            -55.7937   ZZ=            -56.3372
   XY=              0.0050   XZ=             -0.7956   YZ=              0.0769
 Traceless Quadrupole moment (field-independent basis, Debye-Ang):
   XX=             -0.5603   YY=              0.5519   ZZ=              0.0084
   XY=              0.0050   XZ=             -0.7956   YZ=              0.0769
 Octapole moment (field-independent basis, Debye-Ang**2):
  XXX=             -8.9266  YYY=             -0.7817  ZZZ=             -0.4089  XYY=              2.9161
  XXY=              0.7845  XXZ=             -0.6776  XZZ=              0.4554  YZZ=              0.5255
  YYZ=              1.8574  XYZ=              0.4877
 Hexadecapole moment (field-independent basis, Debye-Ang**3):
 XXXX=          -2168.8364 YYYY=           -278.9191 ZZZZ=           -227.7742 XXXY=             -0.4449
 XXXZ=            -14.3098 YYYX=              0.5140 YYYZ=             -1.2475 ZZZX=             -4.9640
 ZZZY=              1.8254 XXYY=           -408.7846 XXZZ=           -396.2367 YYZZ=            -81.9503
 XXYZ=             -0.9080 YYXZ=             -2.2113 ZZXY=              0.3852
 N-N= 3.931361177344D+02 E-N=-1.515737531774D+03  KE= 3.138570244659D+02
 R6APFD:  NTU= -4 IXU= 1 FactS= 1.050
 Calling FoFJK, ICntrl=      2127 FMM=F ISym2X=0 I1Cent= 0 IOpClX= 0 NMat=1 NMatS=1 NMatT=0.
 ***** Axes restored to original set *****
 -------------------------------------------------------------------
 Center     Atomic                   Forces (Hartrees/Bohr)
 Number     Number              X              Y              Z
 -------------------------------------------------------------------
      1        6          -0.004215193    0.006663525   -0.005590331
      2        6           0.007885212   -0.005473492   -0.006151621
      3        6           0.003460552   -0.001504156    0.011524137
      4        6          -0.003059756    0.001002377   -0.010750420
      5        6           0.001004934   -0.001839322    0.006841468
      6        6          -0.003613239    0.000669211    0.004460046
      7        6          -0.007642713   -0.000719698    0.002839101
      8        6           0.003149734    0.000908250   -0.003600604
      9        1           0.000203119   -0.002410696    0.000752349
     10        1           0.001924793    0.002078323    0.002054316
     11        1          -0.001946158   -0.000169770    0.002018658
     12        1          -0.000765580   -0.001436593   -0.002944038
     13        1          -0.001480328    0.002352884   -0.002199219
     14        1           0.000375535    0.001388511    0.002792670
     15        1           0.001046114   -0.002250020    0.002296916
     16        1          -0.002378961   -0.000965459   -0.002571858
     17        1          -0.002362422    0.001815036   -0.002046159
     18        1           0.001864365   -0.001046778   -0.000898696
     19        1           0.001190596    0.002721434    0.000304322
     20        1          -0.001231182    0.000637637   -0.000826389
     21        1           0.000968060   -0.002196464    0.000022997
     22        1           0.002020667    0.001296095   -0.000725904
     23        1          -0.001381661   -0.000760831   -0.001775116
     24        1           0.000758279    0.000701582    0.001892158
     25        1           0.000721348   -0.001319585    0.001471449
     26        1           0.003503884   -0.000142002    0.000809767
 -------------------------------------------------------------------
 Cartesian Forces:  Max     0.011524137 RMS     0.003254779

 GradGradGradGradGradGradGradGradGradGradGradGradGradGradGradGradGradGrad
 Berny optimization.
 FormGI is forming the generalized inverse of G from B-inverse, IUseBI=4.
 Internal  Forces:  Max     0.007652916 RMS     0.001817168
 Search for a local minimum.
 Step number   1 out of a maximum of  146
 All quantities printed in internal units (Hartrees-Bohrs-Radians)
 Mixed Optimization -- RFO/linear search
 Second derivative matrix not updated -- first step.
 ITU=  0
     Eigenvalues ---    0.00239   0.00347   0.00358   0.00362   0.00378
     Eigenvalues ---    0.00389   0.00497   0.03393   0.03604   0.03678
     Eigenvalues ---    0.03688   0.03721   0.04626   0.04766   0.04868
     Eigenvalues ---    0.04883   0.04909   0.04928   0.05341   0.05365
     Eigenvalues ---    0.05607   0.05616   0.05636   0.05703   0.08075
     Eigenvalues ---    0.08109   0.08168   0.08441   0.12002   0.12035
     Eigenvalues ---    0.12068   0.12292   0.16000   0.16000   0.16000
     Eigenvalues ---    0.16000   0.16000   0.16000   0.16000   0.16000
     Eigenvalues ---    0.16000   0.16366   0.16889   0.21898   0.21906
     Eigenvalues ---    0.21909   0.21922   0.28532   0.29272   0.29344
     Eigenvalues ---    0.29371   0.29484   0.29560   0.30333   0.33946
     Eigenvalues ---    0.33980   0.34013   0.34027   0.34033   0.34092
     Eigenvalues ---    0.34106   0.34143   0.34158   0.34225   0.34243
     Eigenvalues ---    0.34251   0.34262   0.34269   0.34276   0.34300
     Eigenvalues ---    0.34303   0.34311
 RFO step:  Lambda=-2.84220792D-03 EMin= 2.38810925D-03
 Linear search not attempted -- first point.
 Iteration  1 RMS(Cart)=  0.05011773 RMS(Int)=  0.00064164
 Iteration  2 RMS(Cart)=  0.00130993 RMS(Int)=  0.00013748
 Iteration  3 RMS(Cart)=  0.00000093 RMS(Int)=  0.00013748
 Variable       Old X    -DE/DX   Delta X   Delta X   Delta X     New X
                                 (Linear)    (Quad)   (Total)
    R1        2.90989   0.00155   0.00000   0.00536   0.00536   2.91526
    R2        2.89439   0.00025   0.00000   0.00085   0.00085   2.89524
    R3        2.07364   0.00250   0.00000   0.00729   0.00729   2.08093
    R4        2.07421   0.00316   0.00000   0.00922   0.00922   2.08343
    R5        2.89005   0.00147   0.00000   0.00494   0.00494   2.89499
    R6        2.89292   0.00272   0.00000   0.00919   0.00919   2.90211
    R7        2.07308   0.00280   0.00000   0.00817   0.00817   2.08125
    R8        2.89235   0.00139   0.00000   0.00470   0.00470   2.89705
    R9        2.06952   0.00314   0.00000   0.00909   0.00909   2.07860
   R10        2.06908   0.00322   0.00000   0.00934   0.00934   2.07842
   R11        2.88848   0.00109   0.00000   0.00367   0.00367   2.89215
   R12        2.07284   0.00298   0.00000   0.00869   0.00869   2.08153
   R13        2.07274   0.00314   0.00000   0.00916   0.00916   2.08191
   R14        2.87304   0.00765   0.00000   0.02500   0.02500   2.89804
   R15        2.07174   0.00275   0.00000   0.00800   0.00800   2.07975
   R16        2.07152   0.00275   0.00000   0.00799   0.00799   2.07951
   R17        2.06827   0.00164   0.00000   0.00475   0.00475   2.07302
   R18        2.06890   0.00258   0.00000   0.00746   0.00746   2.07636
   R19        2.07065   0.00145   0.00000   0.00420   0.00420   2.07485
   R20        2.06921   0.00214   0.00000   0.00619   0.00619   2.07540
   R21        2.06808   0.00177   0.00000   0.00512   0.00512   2.07320
   R22        2.07089   0.00179   0.00000   0.00519   0.00519   2.07608
   R23        2.06878   0.00193   0.00000   0.00558   0.00558   2.07435
   R24        2.06868   0.00190   0.00000   0.00549   0.00549   2.07416
   R25        2.06821   0.00185   0.00000   0.00535   0.00535   2.07356
    A1        1.98076   0.00661   0.00000   0.03230   0.03222   2.01298
    A2        1.91166  -0.00256   0.00000  -0.01646  -0.01623   1.89543
    A3        1.89333  -0.00053   0.00000   0.01205   0.01192   1.90525
    A4        1.91273  -0.00218   0.00000  -0.01693  -0.01683   1.89590
    A5        1.90337  -0.00271   0.00000  -0.00884  -0.00935   1.89402
    A6        1.85786   0.00107   0.00000  -0.00398  -0.00406   1.85380
    A7        1.96286  -0.00238   0.00000  -0.00471  -0.00549   1.95736
    A8        1.91644   0.00387   0.00000   0.03711   0.03701   1.95345
    A9        1.88166  -0.00055   0.00000  -0.01374  -0.01374   1.86793
   A10        1.91445   0.00023   0.00000   0.01323   0.01291   1.92735
   A11        1.89420   0.00031   0.00000  -0.01837  -0.01845   1.87575
   A12        1.89259  -0.00154   0.00000  -0.01533  -0.01509   1.87751
   A13        1.94113   0.00271   0.00000   0.01604   0.01600   1.95712
   A14        1.92837  -0.00076   0.00000  -0.00551  -0.00556   1.92281
   A15        1.92846  -0.00130   0.00000  -0.00645  -0.00662   1.92183
   A16        1.89875  -0.00078   0.00000  -0.00170  -0.00167   1.89708
   A17        1.88928   0.00021   0.00000   0.00994   0.00993   1.89921
   A18        1.87612  -0.00015   0.00000  -0.01294  -0.01299   1.86313
   A19        1.94319   0.00483   0.00000   0.02633   0.02625   1.96944
   A20        1.91439  -0.00153   0.00000  -0.00513  -0.00518   1.90921
   A21        1.91062  -0.00080   0.00000   0.00157   0.00154   1.91215
   A22        1.91026  -0.00112   0.00000  -0.00282  -0.00289   1.90737
   A23        1.91408  -0.00176   0.00000  -0.00728  -0.00742   1.90667
   A24        1.86985   0.00018   0.00000  -0.01427  -0.01433   1.85551
   A25        1.94591   0.00299   0.00000   0.01801   0.01799   1.96390
   A26        1.91768  -0.00182   0.00000  -0.01350  -0.01378   1.90390
   A27        1.91771  -0.00184   0.00000  -0.01516  -0.01539   1.90233
   A28        1.90367   0.00049   0.00000   0.01414   0.01421   1.91788
   A29        1.90595   0.00032   0.00000   0.01127   0.01137   1.91733
   A30        1.87131  -0.00025   0.00000  -0.01577  -0.01608   1.85524
   A31        1.96291  -0.00296   0.00000  -0.02253  -0.02248   1.94043
   A32        1.93501   0.00206   0.00000   0.01362   0.01352   1.94853
   A33        1.92183   0.00130   0.00000   0.01122   0.01113   1.93296
   A34        1.89300  -0.00022   0.00000  -0.00730  -0.00727   1.88573
   A35        1.86951   0.00057   0.00000   0.00139   0.00144   1.87095
   A36        1.87846  -0.00073   0.00000   0.00403   0.00381   1.88227
   A37        1.93843   0.00123   0.00000   0.00840   0.00821   1.94664
   A38        1.96247  -0.00335   0.00000  -0.02577  -0.02573   1.93673
   A39        1.92146   0.00260   0.00000   0.02024   0.02016   1.94162
   A40        1.89152   0.00026   0.00000  -0.00618  -0.00625   1.88528
   A41        1.87587  -0.00080   0.00000   0.00522   0.00494   1.88080
   A42        1.87078   0.00009   0.00000  -0.00127  -0.00112   1.86965
   A43        1.93723   0.00007   0.00000  -0.00169  -0.00177   1.93546
   A44        1.93750  -0.00001   0.00000  -0.00230  -0.00238   1.93513
   A45        1.92439   0.00445   0.00000   0.03164   0.03153   1.95592
   A46        1.89036  -0.00099   0.00000  -0.01421  -0.01425   1.87610
   A47        1.88633  -0.00186   0.00000  -0.00721  -0.00732   1.87901
   A48        1.88637  -0.00184   0.00000  -0.00726  -0.00736   1.87900
    D1       -1.00013  -0.00133   0.00000  -0.06882  -0.06897  -1.06910
    D2        1.13682   0.00011   0.00000  -0.02842  -0.02853   1.10830
    D3       -3.08766   0.00009   0.00000  -0.03415  -0.03435  -3.12202
    D4        3.13935  -0.00123   0.00000  -0.05726  -0.05726   3.08209
    D5       -1.00688   0.00020   0.00000  -0.01686  -0.01682  -1.02370
    D6        1.05182   0.00018   0.00000  -0.02260  -0.02264   1.02917
    D7        1.11818  -0.00082   0.00000  -0.05028  -0.05012   1.06806
    D8       -3.02805   0.00061   0.00000  -0.00988  -0.00968  -3.03773
    D9       -0.96935   0.00060   0.00000  -0.01561  -0.01551  -0.98486
   D10        3.09070   0.00114   0.00000   0.04425   0.04424   3.13494
   D11       -1.08194   0.00145   0.00000   0.04909   0.04906  -1.03288
   D12        0.99203  -0.00004   0.00000   0.02547   0.02552   1.01755
   D13       -1.04937   0.00085   0.00000   0.03297   0.03288  -1.01650
   D14        1.06117   0.00116   0.00000   0.03781   0.03769   1.09886
   D15        3.13515  -0.00033   0.00000   0.01419   0.01415  -3.13389
   D16        0.97802  -0.00063   0.00000   0.01371   0.01378   0.99180
   D17        3.08856  -0.00032   0.00000   0.01855   0.01860   3.10716
   D18       -1.12065  -0.00181   0.00000  -0.00507  -0.00495  -1.12559
   D19        1.21359   0.00163   0.00000   0.02524   0.02513   1.23872
   D20       -0.90918   0.00251   0.00000   0.04067   0.04063  -0.86855
   D21       -2.98604   0.00129   0.00000   0.01992   0.01974  -2.96631
   D22       -0.92449  -0.00186   0.00000  -0.02860  -0.02853  -0.95303
   D23       -3.04726  -0.00098   0.00000  -0.01316  -0.01304  -3.06030
   D24        1.15906  -0.00220   0.00000  -0.03391  -0.03393   1.12513
   D25       -2.98937  -0.00032   0.00000  -0.00690  -0.00684  -2.99621
   D26        1.17105   0.00057   0.00000   0.00853   0.00865   1.17970
   D27       -0.90582  -0.00065   0.00000  -0.01222  -0.01224  -0.91806
   D28        0.92228  -0.00052   0.00000  -0.01695  -0.01725   0.90503
   D29       -1.20074   0.00062   0.00000   0.00319   0.00289  -1.19784
   D30        2.99784   0.00093   0.00000   0.00784   0.00772   3.00556
   D31        3.08769  -0.00075   0.00000   0.01114   0.01129   3.09898
   D32        0.96468   0.00039   0.00000   0.03128   0.03144   0.99611
   D33       -1.11993   0.00070   0.00000   0.03593   0.03626  -1.08367
   D34       -1.12962  -0.00115   0.00000  -0.01245  -0.01248  -1.14210
   D35        3.03055  -0.00000   0.00000   0.00769   0.00766   3.03821
   D36        0.94594   0.00030   0.00000   0.01234   0.01248   0.95843
   D37       -3.11487  -0.00016   0.00000  -0.01330  -0.01331  -3.12818
   D38       -0.99789   0.00057   0.00000  -0.00304  -0.00308  -1.00097
   D39        1.04906  -0.00056   0.00000  -0.02240  -0.02248   1.02659
   D40        1.04047  -0.00043   0.00000  -0.01558  -0.01556   1.02491
   D41       -3.12574   0.00030   0.00000  -0.00532  -0.00533  -3.13107
   D42       -1.07878  -0.00083   0.00000  -0.02468  -0.02473  -1.10351
   D43       -0.99320   0.00005   0.00000  -0.00473  -0.00464  -0.99784
   D44        1.12378   0.00078   0.00000   0.00553   0.00559   1.12937
   D45       -3.11245  -0.00035   0.00000  -0.01383  -0.01381  -3.12625
   D46       -3.11730  -0.00029   0.00000  -0.01165  -0.01162  -3.12892
   D47       -1.00460   0.00106   0.00000   0.00891   0.00879  -0.99581
   D48        1.05029  -0.00143   0.00000  -0.02748  -0.02732   1.02297
   D49        1.04650  -0.00077   0.00000  -0.02048  -0.02048   1.02602
   D50       -3.12399   0.00058   0.00000   0.00007  -0.00007  -3.12405
   D51       -1.06910  -0.00191   0.00000  -0.03632  -0.03617  -1.10527
   D52       -1.00007   0.00068   0.00000   0.00268   0.00266  -0.99742
   D53        1.11263   0.00204   0.00000   0.02324   0.02306   1.13569
   D54       -3.11567  -0.00045   0.00000  -0.01315  -0.01304  -3.12871
   D55       -1.05090   0.00066   0.00000   0.01276   0.01279  -1.03811
   D56        1.05258  -0.00055   0.00000  -0.00790  -0.00790   1.04468
   D57       -3.14064   0.00004   0.00000   0.00221   0.00222  -3.13843
   D58        3.11143   0.00068   0.00000   0.00851   0.00845   3.11988
   D59       -1.06828  -0.00054   0.00000  -0.01215  -0.01223  -1.08051
   D60        1.02168   0.00006   0.00000  -0.00205  -0.00212   1.01957
   D61        1.07153   0.00052   0.00000   0.01307   0.01314   1.08467
   D62       -3.10817  -0.00070   0.00000  -0.00759  -0.00755  -3.11572
   D63       -1.01821  -0.00010   0.00000   0.00252   0.00257  -1.01564
         Item               Value     Threshold  Converged?
 Maximum Force            0.007653     0.000450     NO 
 RMS     Force            0.001817     0.000300     NO 
 Maximum Displacement     0.183653     0.001800     NO 
 RMS     Displacement     0.049902     0.001200     NO 
 Predicted change in Energy=-1.491187D-03
 GradGradGradGradGradGradGradGradGradGradGradGradGradGradGradGradGradGrad

                          Input orientation:                          
 ---------------------------------------------------------------------
 Center     Atomic      Atomic             Coordinates (Angstroms)
 Number     Number       Type             X           Y           Z
 ---------------------------------------------------------------------
      1          6           0       -0.911703   -0.119506    0.878733
      2          6           0       -2.354413   -0.029407    0.339884
      3          6           0        0.191637    0.020306   -0.175023
      4          6           0        1.592866   -0.070748    0.440212
      5          6           0        2.708061    0.085720   -0.596210
      6          6           0       -2.641556    1.323678   -0.318614
      7          6           0       -2.677333   -1.176358   -0.628976
      8          6           0        4.106236   -0.024260    0.024168
      9          1           0       -0.787984   -1.086186    1.391401
     10          1           0       -0.763020    0.657482    1.646653
     11          1           0       -3.028523   -0.125588    1.205505
     12          1           0        0.089620   -0.765849   -0.937546
     13          1           0        0.095585    0.983236   -0.697724
     14          1           0        1.703715    0.705457    1.213850
     15          1           0        1.707873   -1.038462    0.954062
     16          1           0        2.583675   -0.679840   -1.377024
     17          1           0        2.597129    1.059009   -1.097554
     18          1           0       -2.108685    1.421242   -1.272517
     19          1           0       -2.340313    2.160439    0.326645
     20          1           0       -3.712935    1.432592   -0.532641
     21          1           0       -2.437228   -2.154199   -0.190408
     22          1           0       -2.109000   -1.074035   -1.561788
     23          1           0       -3.742451   -1.182190   -0.898129
     24          1           0        4.256118    0.746916    0.790831
     25          1           0        4.244339   -1.000398    0.506672
     26          1           0        4.899790    0.092146   -0.724660
 ---------------------------------------------------------------------
                    Distance matrix (angstroms):
                    1          2          3          4          5
     1  C    0.000000
     2  C    1.542688   0.000000
     3  C    1.532093   2.598070   0.000000
     4  C    2.543137   3.948770   1.533051   0.000000
     5  C    3.914112   5.149579   2.552267   1.530462   0.000000
     6  C    2.551238   1.531963   3.121920   4.522231   5.498000
     7  C    2.550995   1.535730   3.141508   4.538738   5.531400
     8  C    5.091078   6.468361   3.919917   2.547996   1.533577
     9  H    1.101183   2.162445   2.153524   2.757593   4.188829
    10  H    1.102506   2.170712   2.153107   2.745181   4.172021
    11  H    2.141902   1.101351   3.506647   4.684647   6.016579
    12  H    2.172390   2.854377   1.099949   2.154328   2.774511
    13  H    2.171609   2.846851   1.099853   2.155836   2.764213
    14  H    2.762840   4.215714   2.164435   1.101498   2.160810
    15  H    2.777109   4.230552   2.166747   1.101698   2.160441
    16  H    4.197628   5.268353   2.767102   2.157554   1.100556
    17  H    4.196012   5.269596   2.777833   2.156298   1.100429
    18  H    2.904229   2.182796   2.908367   4.342920   5.044012
    19  H    2.746612   2.189932   3.353001   4.523383   5.535541
    20  H    3.499698   2.178147   4.167509   5.599822   6.561044
    21  H    2.758670   2.191531   3.411691   4.580404   5.626358
    22  H    2.881109   2.183537   2.900626   4.326477   5.047916
    23  H    3.507088   2.188204   4.176832   5.611779   6.580870
    24  H    5.240686   6.671218   4.240382   2.807921   2.181179
    25  H    5.243965   6.671894   4.234494   2.810511   2.180860
    26  H    6.032340   7.332904   4.740671   3.509873   2.195499
                    6          7          8          9         10
     6  C    0.000000
     7  C    2.519482   0.000000
     8  C    6.889640   6.911638   0.000000
     9  H    3.488169   2.767616   5.191378   0.000000
    10  H    2.799105   3.493716   5.177537   1.762429   0.000000
    11  H    2.138470   2.143076   7.232608   2.444856   2.437276
    12  H    3.494070   2.814208   4.196195   2.509342   3.070985
    13  H    2.784163   3.515345   4.197797   3.070446   2.517821
    14  H    4.648874   5.111832   2.778477   3.074097   2.504876
    15  H    5.110474   4.664232   2.765042   2.534333   3.075910
    16  H    5.695380   5.337070   2.170557   4.381481   4.704405
    17  H    5.302887   5.747729   2.170055   4.717600   4.356891
    18  H    1.096996   2.735878   6.511230   3.889460   3.303891
    19  H    1.098761   3.487264   6.813399   3.752866   2.547382
    20  H    1.097963   2.808624   7.973199   4.312947   3.748615
    21  H    3.486232   1.098255   6.884737   2.522454   3.752774
    22  H    2.752840   1.097092   6.499727   3.235206   3.886375
    23  H    2.797710   1.098614   7.987072   3.738989   4.328662
    24  H    7.010095   7.334002   1.097701   5.400362   5.092365
    25  H    7.314231   7.016424   1.097600   5.110223   5.396459
    26  H    7.652022   7.683167   1.097280   6.181986   6.165238
                   11         12         13         14         15
    11  H    0.000000
    12  H    3.837371   0.000000
    13  H    3.822541   1.765460   0.000000
    14  H    4.804663   3.065705   2.513436   0.000000
    15  H    4.830115   2.504244   3.068409   1.763168   0.000000
    16  H    6.202694   2.533939   3.068854   3.066921   2.515870
    17  H    6.193166   3.105368   2.534428   2.503153   3.065826
    18  H    3.062577   3.118993   2.319707   4.607469   5.057066
    19  H    2.544002   4.008231   2.892877   4.388425   5.197541
    20  H    2.432590   4.410954   3.838489   5.737513   6.140159
    21  H    2.532482   2.978370   4.063989   5.224651   4.442583
    22  H    3.066429   2.306207   3.136745   5.040591   4.571574
    23  H    2.459954   3.854823   4.411320   6.138761   5.758237
    24  H    7.348416   4.757672   4.425119   2.587552   3.115730
    25  H    7.358545   4.404823   4.753686   3.140829   2.575901
    26  H    8.162787   4.890727   4.886221   3.787990   3.779513
                   16         17         18         19         20
    16  H    0.000000
    17  H    1.761215   0.000000
    18  H    5.142345   4.722977   0.000000
    19  H    5.934251   5.255457   1.776903   0.000000
    20  H    6.694972   6.346306   1.766682   1.775451   0.000000
    21  H    5.365748   6.040891   3.750023   4.346589   3.822253
    22  H    4.712826   5.187778   2.511988   3.752534   3.148798
    23  H    6.364084   6.727036   3.096322   3.826125   2.640366
    24  H    3.087440   2.532913   6.724793   6.762132   8.107253
    25  H    2.531575   3.086746   7.027856   7.306227   8.385572
    26  H    2.527039   2.525099   7.154395   7.602775   8.718527
                   21         22         23         24         25
    21  H    0.000000
    22  H    1.776280   0.000000
    23  H    1.774620   1.766437   0.000000
    24  H    7.360718   7.026052   8.399472   0.000000
    25  H    6.816195   6.681981   8.111432   1.770307   0.000000
    26  H    7.691769   7.154293   8.737411   1.771934   1.771849
                   26
    26  H    0.000000
 Stoichiometry    C8H18
 Framework group  C1[X(C8H18)]
 Deg. of freedom    72
 Full point group                 C1      NOp   1
 Largest Abelian subgroup         C1      NOp   1
 Largest concise Abelian subgroup C1      NOp   1
                         Standard orientation:                         
 ---------------------------------------------------------------------
 Center     Atomic      Atomic             Coordinates (Angstroms)
 Number     Number       Type             X           Y           Z
 ---------------------------------------------------------------------
      1          6           0       -0.919098   -0.038612    0.919865
      2          6           0       -2.368452   -0.005668    0.392441
      3          6           0        0.171102    0.002968   -0.155795
      4          6           0        1.579882   -0.023721    0.448252
      5          6           0        2.682065    0.036145   -0.611901
      6          6           0       -2.669501    1.276830   -0.389530
      7          6           0       -2.697530   -1.241574   -0.457682
      8          6           0        4.087939   -0.008899   -0.000879
      9          1           0       -0.784940   -0.951079    1.521538
     10          1           0       -0.764924    0.809130    1.607676
     11          1           0       -3.031872   -0.020450    1.271436
     12          1           0        0.063695   -0.853219   -0.837920
     13          1           0        0.064507    0.910832   -0.767429
     14          1           0        1.696297    0.823662    1.142289
     15          1           0        1.705347   -0.937134    1.051306
     16          1           0        2.551981   -0.801378   -1.313938
     17          1           0        2.560796    0.956323   -1.203094
     18          1           0       -2.148356    1.284016   -1.354806
     19          1           0       -2.364497    2.172790    0.168595
     20          1           0       -3.743813    1.361004   -0.599985
     21          1           0       -2.447817   -2.171880    0.069897
     22          1           0       -2.140699   -1.227500   -1.402854
     23          1           0       -3.765707   -1.276892   -0.712050
     24          1           0        4.243324    0.832941    0.686224
     25          1           0        4.236167   -0.933632    0.571506
     26          1           0        4.872076    0.037654   -0.767028
 ---------------------------------------------------------------------
 Rotational constants (GHZ):           4.7989043           0.6741962           0.6575157
 Standard basis: 6-311++G(d,p) (5D, 7F)
 There are   310 symmetry adapted cartesian basis functions of A   symmetry.
 There are   302 symmetry adapted basis functions of A   symmetry.
   302 basis functions,   450 primitive gaussians,   310 cartesian basis functions
    33 alpha electrons       33 beta electrons
       nuclear repulsion energy       390.3300083596 Hartrees.
 NAtoms=   26 NActive=   26 NUniq=   26 SFac= 1.00D+00 NAtFMM=   60 NAOKFM=F Big=F
 Integral buffers will be    131072 words long.
 Raffenetti 2 integral format.
 Two-electron integral symmetry is turned on.
 R6APFD:  NTU= -4 IXU= 1 FactS= 1.050
 Nuclear repulsion after empirical dispersion term =      390.3128566995 Hartrees.
 One-electron integrals computed using PRISM.
 NBasis=   302 RedAO= T EigKep=  4.99D-06  NBF=   302
 NBsUse=   302 1.00D-06 EigRej= -1.00D+00 NBFU=   302
 Initial guess from the checkpoint file:  "MLHE0136.chk"
 B after Tr=     0.000000   -0.000000   -0.000000
         Rot=    0.998916    0.046507   -0.000903   -0.001534 Ang=   5.34 deg.
 ExpMin= 3.60D-02 ExpMax= 4.56D+03 ExpMxC= 6.82D+02 IAcc=3 IRadAn=         5 AccDes= 0.00D+00
 Harris functional with IExCor= 1009 and IRadAn=       5 diagonalized for initial guess.
 HarFok:  IExCor= 1009 AccDes= 0.00D+00 IRadAn=         5 IDoV= 1 UseB2=F ITyADJ=14
 ICtDFT=  3500011 ScaDFX=  1.000000  1.000000  1.000000  1.000000
 FoFCou: FMM=F IPFlag=           0 FMFlag=      100000 FMFlg1=           0
         NFxFlg=           0 DoJE=T BraDBF=F KetDBF=T FulRan=T
         wScrn=  0.000000 ICntrl=       500 IOpCl=  0 I1Cent=   200000004 NGrid=           0
         NMat0=    1 NMatS0=      1 NMatT0=    0 NMatD0=    1 NMtDS0=    0 NMtDT0=    0
 Petite list used in FoFCou.
 Requested convergence on RMS density matrix=1.00D-08 within  32 cycles.
 Requested convergence on MAX density matrix=1.00D-06.
 Requested convergence on             energy=1.00D-06.
 No special actions if energy rises.
 SCF Done:  E(RM08HX) =  -315.734861817     A.U. after    9 cycles
            NFock=  9  Conv=0.97D-08     -V/T= 2.0065
 QCSCF skips out because SCF is already converged.
 R6APFD:  NTU= -4 IXU= 1 FactS= 1.050
 Calling FoFJK, ICntrl=      2127 FMM=F ISym2X=0 I1Cent= 0 IOpClX= 0 NMat=1 NMatS=1 NMatT=0.
 ***** Axes restored to original set *****
 -------------------------------------------------------------------
 Center     Atomic                   Forces (Hartrees/Bohr)
 Number     Number              X              Y              Z
 -------------------------------------------------------------------
      1        6          -0.001179854    0.000095227   -0.001653713
      2        6           0.001097265   -0.001045988    0.000169550
      3        6           0.001327893   -0.000596391    0.001802186
      4        6          -0.000846441    0.000259675   -0.001603704
      5        6           0.001033066   -0.000094880    0.001271831
      6        6          -0.000560024   -0.000203391    0.000373838
      7        6          -0.000007385    0.001271277    0.001122273
      8        6          -0.001928250    0.000212599   -0.001111777
      9        1           0.000206449   -0.000490603    0.000630664
     10        1          -0.000670215    0.000033694   -0.000167648
     11        1           0.000313835   -0.000345971    0.001169138
     12        1          -0.000557374   -0.000089067   -0.001059152
     13        1          -0.000358274    0.000590175   -0.000826914
     14        1           0.000107187    0.000051647    0.000804210
     15        1          -0.000288263   -0.000207733    0.000653689
     16        1           0.000037506    0.000023948   -0.000366281
     17        1           0.000067898    0.000096905   -0.000526715
     18        1           0.000927334    0.000202321   -0.000616517
     19        1           0.000195693   -0.000463368   -0.000186728
     20        1           0.000304463    0.000047411   -0.000274985
     21        1           0.000369542    0.000271697    0.000007823
     22        1           0.000780923   -0.000082318   -0.000637376
     23        1           0.000603905    0.000591267    0.000379404
     24        1          -0.000173201    0.000085823    0.000249303
     25        1          -0.000175434   -0.000206360    0.000255473
     26        1          -0.000628243   -0.000007595    0.000142130
 -------------------------------------------------------------------
 Cartesian Forces:  Max     0.001928250 RMS     0.000695410

 GradGradGradGradGradGradGradGradGradGradGradGradGradGradGradGradGradGrad
 Berny optimization.
 Using GEDIIS/GDIIS optimizer.
 FormGI is forming the generalized inverse of G from B-inverse, IUseBI=4.
 Internal  Forces:  Max     0.004275115 RMS     0.000750050
 Search for a local minimum.
 Step number   2 out of a maximum of  146
 All quantities printed in internal units (Hartrees-Bohrs-Radians)
 Mixed Optimization -- En-DIIS/RFO-DIIS
 Update second derivatives using D2CorX and points    1    2
 DE= -1.16D-03 DEPred=-1.49D-03 R= 7.78D-01
 TightC=F SS=  1.41D+00  RLast= 2.20D-01 DXNew= 5.0454D-01 6.5941D-01
 Trust test= 7.78D-01 RLast= 2.20D-01 DXMaxT set to 5.05D-01
 ITU=  1  0
 Use linear search instead of GDIIS.
     Eigenvalues ---    0.00241   0.00347   0.00357   0.00361   0.00378
     Eigenvalues ---    0.00389   0.00497   0.03233   0.03512   0.03571
     Eigenvalues ---    0.03592   0.03702   0.04607   0.04739   0.04759
     Eigenvalues ---    0.04834   0.04875   0.05003   0.05320   0.05439
     Eigenvalues ---    0.05488   0.05519   0.05569   0.05616   0.08173
     Eigenvalues ---    0.08339   0.08399   0.08775   0.12135   0.12216
     Eigenvalues ---    0.12246   0.12548   0.15575   0.16000   0.16000
     Eigenvalues ---    0.16000   0.16000   0.16000   0.16000   0.16000
     Eigenvalues ---    0.16165   0.16651   0.17203   0.21800   0.21898
     Eigenvalues ---    0.21920   0.23350   0.28658   0.29228   0.29340
     Eigenvalues ---    0.29424   0.29532   0.29648   0.32639   0.33329
     Eigenvalues ---    0.33983   0.33992   0.34022   0.34033   0.34077
     Eigenvalues ---    0.34100   0.34153   0.34157   0.34198   0.34236
     Eigenvalues ---    0.34249   0.34267   0.34273   0.34277   0.34297
     Eigenvalues ---    0.34307   0.36208
 RFO step:  Lambda=-2.69834841D-04 EMin= 2.41410681D-03
 Quartic linear search produced a step of -0.14715.
 Iteration  1 RMS(Cart)=  0.02138161 RMS(Int)=  0.00019662
 Iteration  2 RMS(Cart)=  0.00022334 RMS(Int)=  0.00001905
 Iteration  3 RMS(Cart)=  0.00000004 RMS(Int)=  0.00001905
 Variable       Old X    -DE/DX   Delta X   Delta X   Delta X     New X
                                 (Linear)    (Quad)   (Total)
    R1        2.91526  -0.00428  -0.00079  -0.01147  -0.01226   2.90300
    R2        2.89524  -0.00149  -0.00012  -0.00413  -0.00426   2.89098
    R3        2.08093   0.00075  -0.00107   0.00360   0.00253   2.08346
    R4        2.08343  -0.00018  -0.00136   0.00173   0.00038   2.08381
    R5        2.89499  -0.00023  -0.00073   0.00052  -0.00021   2.89478
    R6        2.90211  -0.00245  -0.00135  -0.00491  -0.00626   2.89584
    R7        2.08125   0.00076  -0.00120   0.00383   0.00263   2.08388
    R8        2.89705  -0.00266  -0.00069  -0.00658  -0.00727   2.88978
[...]
 0.00002537,-0.00000069,0.00000233,0.00002178,-0.06289964,-0.04965336,-
 0.03949317,-0.00004099,0.00137100,-0.00045449,0.00000518,-0.00000124,-
 0.00001724,0.00007090,-0.00016940,0.00005510,-0.00001192,-0.00002373,-
 0.00036104,-0.00008378,-0.00049605,-0.00004331,0.00013083,-0.00016475,
 -0.00001241,0.00007482,-0.00029373,0.00019198,-0.00002345,0.00000178,-
 0.00002758,0.00004036,-0.00001137,0.00001339,0.00000521,-0.00000986,-0
 .00000572,-0.00000497,-0.00000185,0.00000787,0.00410586,0.01390511,0.0
 0989789,0.06332357,-0.00113693,0.00091703,-0.00142247,-0.00687231,-0.0
 2077650,-0.01914141,0.00035206,-0.00000439,0.00004567,0.00003411,0.000
 03217,-0.00005636,0.00002107,-0.00001118,0.00001401,-0.04955373,-0.195
 28380,-0.11908663,0.00178031,-0.00473550,0.00463009,0.00000397,0.00000
 172,-0.00000358,-0.00029776,0.00044144,0.00024232,0.00092911,0.0001374
 7,0.00090556,-0.00049687,0.00054052,0.00029235,-0.00020807,0.00013645,
 0.00013278,0.00019133,-0.00020438,-0.00018565,0.00005737,0.00001106,0.
 00004500,-0.00002332,0.00001075,-0.00000451,-0.00001059,0.00001121,0.0
 0001459,0.00000481,0.00000587,-0.00001137,0.00122510,0.00225802,0.0025
 5050,0.05343527,0.21525817,0.00029087,0.00006817,0.00096466,0.00387676
 ,0.01166207,0.00968248,0.00005445,-0.00024677,0.00008993,-0.00000659,0
 .00003897,-0.00003990,0.00001755,-0.00003333,0.00002243,-0.03937159,-0
 .11961685,-0.14230713,-0.00066941,0.00241346,-0.00086039,0.00000685,0.
 00000863,-0.00001270,0.00028166,-0.00005449,0.00007154,0.00004200,-0.0
 0027475,-0.00014352,0.00038876,-0.00072301,0.00048742,-0.00002202,0.00
 017993,-0.00006312,0.00008643,-0.00005866,-0.00023449,0.00002542,-0.00
 000623,0.00004250,-0.00002655,0.00001613,-0.00000736,-0.00000592,0.000
 01853,0.00000442,0.00000851,0.00000925,-0.00002145,-0.00839294,-0.0199
 1340,-0.01512146,0.04402719,0.12941111,0.15106096,0.00124928,0.0012471
 0,-0.00022797,-0.00477717,-0.00092889,-0.00074609,0.00022957,-0.000380
 45,-0.00007879,0.00006679,0.00022026,-0.00001475,0.00000873,-0.0000098
 7,-0.00006631,-0.29525679,0.01965887,-0.05726499,0.00018769,-0.0003955
 5,0.00025476,-0.00001014,-0.00000003,0.00003704,-0.00043016,0.00011652
 ,-0.00011216,0.00010450,-0.00012205,0.00008830,0.00067096,0.00029702,-
 0.00039149,-0.00002839,0.00009389,0.00004902,0.00024263,0.00026549,-0.
 00018233,0.00000377,-0.00001998,-0.00000205,-0.00010314,0.00000083,-0.
 00003305,0.00000088,0.00000838,0.00000966,0.00000920,-0.00000035,0.000
 00228,-0.01519649,0.00095041,-0.00451304,-0.00618779,0.00092445,-0.000
 41533,0.31886156,-0.00045420,-0.00564064,0.00205198,0.02978066,-0.0019
 9780,0.00576137,-0.00052150,-0.00022810,0.00049598,0.00013491,0.000045
 10,-0.00015288,0.00002555,0.00001993,0.00003860,0.01892771,-0.04769406
 ,0.00362539,0.00081127,0.00154357,0.00023066,0.00001069,0.00000458,-0.
 00002344,0.00164701,-0.00005548,0.00078449,-0.00005729,0.00012272,0.00
 021346,-0.00045825,0.00129200,-0.00017362,0.00001574,0.00003184,-0.000
 07415,0.00005924,0.00018465,-0.00023440,-0.00000606,-0.00000693,0.0000
 2304,-0.00006596,0.00007128,-0.00003944,0.00000048,-0.00000226,-0.0000
 0446,0.00001840,0.00001516,-0.00002259,-0.00224664,-0.00101687,-0.0008
 8527,-0.02392311,0.00223718,-0.00385992,-0.02264907,0.05137393,0.00032
 854,0.00364953,-0.00116140,-0.01532443,0.00064558,-0.00479121,0.000628
 44,0.00050444,-0.00024981,-0.00018050,-0.00028147,0.00019222,-0.000030
 51,0.00000404,-0.00001787,-0.05692599,0.00357809,-0.05833373,0.0004110
 6,-0.00058479,0.00010416,-0.00000835,-0.00000774,0.00001426,-0.0011355
 5,0.00041097,-0.00015180,0.00040472,0.00000926,0.00032708,-0.00019232,
 -0.00044582,-0.00010830,-0.00008591,0.00004807,0.00000939,-0.00007598,
 -0.00055850,0.00015874,0.00003708,0.00001390,0.00001629,0.00015325,-0.
 00004084,0.00006422,-0.00000645,0.00000632,0.00000448,-0.00001939,-0.0
 0001514,0.00000837,0.02694157,-0.00215984,0.00691029,-0.01866827,0.002
 60157,-0.00443418,0.06344700,-0.00749143,0.06124202,0.00052675,-0.0010
 6765,0.00060708,-0.00008795,-0.00580033,0.00321616,0.00002561,0.000065
 07,-0.00014602,-0.00000781,0.00005495,-0.00000398,-0.00000195,-0.00000
 479,0.00001624,-0.00007170,-0.00124132,-0.00079750,-0.06014159,0.05295
 698,-0.02446476,0.00000492,0.00000465,-0.00001472,-0.00007218,0.000091
 93,-0.00038909,0.00007200,0.00015493,0.00009052,-0.00006611,0.00051772
 ,0.00007797,0.00007496,0.00017137,0.00022282,0.00013122,0.00014912,0.0
 0004534,0.00002586,0.00000599,0.00000823,-0.00002323,0.00001003,-0.000
 02808,-0.00000413,-0.00000206,0.00000851,0.00000644,0.00001068,-0.0000
 0293,0.00001880,0.00023571,-0.00029787,0.00062606,-0.00037656,0.000000
 02,0.00029110,-0.00036335,0.00008399,0.06037630,0.00111678,0.00055515,
 0.00136766,0.00527940,-0.02083170,0.01174591,-0.00035001,-0.00001832,-
 0.00006677,-0.00002545,-0.00001410,0.00006154,-0.00002396,-0.00000454,
 -0.00002508,-0.00164164,-0.00284736,-0.00505849,0.05279228,-0.24866167
 ,0.09516164,-0.00000497,0.00000037,0.00000791,-0.00093021,0.00033717,-
 0.00079101,0.00020829,0.00047410,-0.00014776,0.00041696,0.00044373,-0.
 00030666,-0.00014667,-0.00027038,0.00013537,0.00019893,0.00017738,-0.0
 0006724,0.00001355,0.00001174,0.00000552,-0.00006583,0.00003189,-0.000
 04741,-0.00000468,0.00000031,0.00001673,0.00001340,0.00001903,-0.00001
 013,-0.00006317,0.00041179,-0.00007697,0.00034713,-0.00159172,0.000648
 39,0.00010409,0.00028824,-0.00002421,-0.05718096,0.27273893,0.00060931
 ,-0.00021872,0.00121206,0.00486961,-0.01914121,0.00970380,0.00001925,0
 .00013361,0.00010218,-0.00002410,0.00002019,-0.00002128,0.00001231,0.0
 0001457,0.00002680,-0.00112320,-0.00288843,-0.00265748,-0.02437484,0.0
 9574099,-0.09126751,0.00000526,-0.00000056,-0.00001343,-0.00021590,0.0
 0035491,-0.00025153,0.00033741,0.00013209,0.00006158,0.00050370,0.0007
 1005,0.00062073,0.00001354,0.00009122,-0.00015464,0.00002691,-0.000094
 90,-0.00012876,-0.00001005,-0.00001167,-0.00000119,0.00001341,-0.00000
 500,0.00003240,0.00000484,0.00000129,-0.00001967,-0.00000401,-0.000014
 75,-0.00000344,-0.00026456,-0.00022092,0.00016483,0.00008021,-0.001218
 81,0.00075204,0.00005473,0.00007704,-0.00019128,0.02788249,-0.10191006
 ,0.09621171,0.00036049,0.00069553,-0.00022529,0.00389002,0.00134583,-0
 .00552849,-0.00082013,0.00000525,0.00016289,0.00006374,0.00001455,-0.0
 0012163,0.00004618,-0.00002285,0.00005283,0.00013260,0.00022959,-0.000
 05214,-0.11862700,-0.01499693,0.11674755,0.00001298,0.00000412,-0.0000
 2799,-0.00006457,-0.00002476,-0.00002088,0.00002295,0.00003719,0.00027
 386,0.00066247,-0.00092802,-0.00119762,-0.00254345,-0.00084384,-0.0010
 1747,0.00008935,0.00001166,0.00013579,0.00000952,0.00000321,-0.0000073
 6,0.00001492,-0.00001278,-0.00000414,0.00000111,0.00000215,0.00000455,
 0.00000140,0.00001090,-0.00000050,0.00013337,0.00041020,0.00017416,0.0
 0001661,0.00012829,-0.00023655,-0.00011743,-0.00004589,0.00015921,0.00
 384874,0.00060494,-0.00789494,0.12827541,0.00028513,0.00057199,0.00077
 799,0.01492892,0.00168275,-0.02160752,-0.00037001,0.00044532,0.0003423
 6,-0.00000276,-0.00009043,0.00006294,-0.00000656,0.00003192,0.00002758
 ,0.00098683,0.00189668,-0.00118102,-0.01495526,-0.04882715,0.02463335,
 0.00000284,-0.00001156,-0.00000881,-0.00011183,-0.00002155,-0.00000317
 ,0.00007868,0.00002975,0.00014182,-0.00108829,-0.00374339,-0.00358933,
 -0.00063669,0.00017051,-0.00023496,-0.00005028,-0.00022244,0.00001889,
 0.00001948,-0.00000947,-0.00002915,0.00004837,-0.00001352,0.00003642,0
 .00000906,-0.00000894,-0.00002127,-0.00000599,-0.00001485,-0.00000219,
 -0.00046492,-0.00053742,0.00061942,-0.00016412,0.00032816,0.00026954,0
 .00001747,-0.00003711,0.00007497,-0.01612971,-0.00227659,0.02296327,0.
 01716594,0.05184627,0.00099848,0.00025314,0.00002434,0.01201447,0.0019
 7709,-0.01922290,0.00028007,-0.00074496,-0.00066753,-0.00023722,0.0004
 3760,0.00047040,-0.00007555,-0.00003701,0.00000992,-0.00034537,0.00151
 032,0.00091420,0.11635542,0.02415513,-0.22985057,-0.00000525,0.0000136
 5,-0.00000362,0.00003044,-0.00008435,0.00004244,-0.00019813,-0.0000694
 3,0.00022798,-0.00165495,-0.00359455,-0.00170245,-0.00080134,0.0005222
 8,0.00084676,-0.00005745,0.00008335,0.00000698,0.00027195,0.00002090,0
 .00012224,0.00004251,-0.00005289,-0.00000457,-0.00003114,0.00001454,0.
 00001649,-0.00000679,0.00000315,0.00000066,0.00005539,-0.00090313,0.00
 063802,-0.00033303,0.00011212,0.00024063,-0.00009063,-0.00003285,-0.00
 001968,0.00653595,0.00032407,-0.01028856,-0.12802252,-0.02292393,0.250
 91783,0.00124372,-0.00123267,-0.00060809,-0.00516364,0.00109761,-0.000
 61387,0.00027290,0.00034849,0.00003916,0.00004766,-0.00019465,-0.00007
 211,0.00000806,0.00002943,-0.00005854,0.00019859,0.00036354,0.00034336
 ,-0.29441614,-0.00059580,-0.06181313,-0.00001050,-0.00001157,0.0000344
 8,0.00012499,0.00009002,0.00013980,-0.00046059,-0.00008959,-0.00013593
 ,0.00065981,-0.00019516,-0.00044596,0.00024544,-0.00016288,-0.00025029
 ,-0.00004713,-0.00012017,0.00000404,-0.00009522,0.00001181,-0.00002674
 ,0.00000739,0.00001840,0.00000802,0.00000945,0.00000067,0.00000174,-0.
 00000068,-0.00001158,0.00000611,-0.00013125,-0.00000615,-0.00009051,0.
 00029342,-0.00011155,0.00003433,0.00021188,-0.00064731,0.00005866,-0.0
 0556228,-0.00065416,-0.00052858,-0.01542878,0.00044217,-0.00474787,0.3
 1802308,0.00028698,-0.00406270,-0.00274998,-0.02528194,-0.00024073,-0.
 00493486,0.00031971,0.00002852,-0.00042424,-0.00009260,-0.00006722,0.0
 0008646,-0.00001899,0.00003540,-0.00002669,-0.00086759,0.00139112,0.00
 004997,0.00003956,-0.04628922,0.00042003,-0.00000894,-0.00000431,0.000
 01934,-0.00003385,0.00020771,-0.00023869,-0.00132175,0.00022679,-0.000
 67410,0.00050732,0.00106106,0.00047996,-0.00001504,-0.00001894,0.00018
 215,-0.00000901,0.00000332,0.00005693,0.00002542,0.00004882,0.00004072
 ,-0.00000881,0.00001068,-0.00002520,-0.00001188,0.00000400,0.00002219,
 0.00000198,-0.00000148,0.00000138,0.00000208,-0.00002080,0.00004578,0.
 00032381,0.00027584,0.00004017,0.00060080,-0.00055197,0.00006012,0.027
 73690,0.00102011,0.00549146,-0.00379423,-0.00118795,-0.00097830,0.0016
 2723,0.04812767,0.00033771,-0.00425284,-0.00275887,-0.02179502,0.00077
 388,-0.00615291,0.00064275,-0.00038684,-0.00056626,-0.00018780,0.00020
 643,0.00029161,-0.00003670,0.00000914,-0.00002805,0.00020133,0.0008862
 4,0.00026524,-0.06131097,0.00047639,-0.06019340,-0.00001100,0.00000271
 ,0.00002221,0.00042147,-0.00008328,0.00026042,-0.00147347,-0.00032044,
 -0.00040946,-0.00005638,0.00073298,0.00009368,-0.00010955,0.00045905,0
 .00039982,-0.00005892,-0.00000324,0.00004599,0.00016719,0.00002252,0.0
 0008121,0.00002922,-0.00001733,0.00000092,-0.00002265,0.00001328,0.000
 01987,-0.00000565,-0.00000620,0.00000325,0.00016942,-0.00007956,-0.000
 03238,0.00017293,0.00013119,-0.00018062,0.00020873,-0.00031385,0.00040
 735,-0.01265306,-0.00094028,-0.00389603,0.02663937,-0.00036880,0.00727
 447,0.06873343,0.00306072,0.06505407,0.00005479,0.00007711,0.00010396,
 0.00000334,0.00000666,-0.00001451,-0.00011986,0.00019298,-0.00003373,0
 .00196023,-0.00100712,-0.00113937,-0.00495219,-0.02285567,-0.02196159,
 0.00000903,0.00000046,-0.00000756,0.00001619,-0.00000560,-0.00001137,-
 0.04981052,-0.02281915,-0.02201453,-0.00000349,-0.00000312,-0.00000074
 ,-0.00005285,0.00001217,0.00005286,0.00000870,-0.00000016,0.00000219,0
 .00018262,0.00016248,0.00022470,0.00002658,-0.00002473,-0.00003250,-0.
 00050509,0.00055214,0.00081461,-0.00000872,0.00002634,0.00010603,-0.00
 568840,0.00076784,-0.00238207,0.00124120,0.00033943,0.00044011,-0.0000
 0242,-0.00000167,0.00000008,-0.00000401,0.00000539,0.00000397,0.000004
 14,-0.00000016,0.00000278,-0.00000052,0.00000221,-0.00000318,-0.000001
 87,-0.00000547,0.00000449,0.00000252,0.00000419,0.00000535,0.05535215,
 -0.00007091,-0.00003013,-0.00006466,-0.00001643,0.00000236,0.00003065,
 -0.00011434,0.00020060,0.00034716,0.00009898,0.00003600,0.00005870,0.0
 0061436,0.00283197,0.00297744,0.00000154,-0.00000199,-0.00000669,0.000
 00721,-0.00000129,0.00000088,-0.02333884,-0.17683034,-0.12842505,-0.00
 000277,-0.00001143,-0.00000127,-0.00000805,0.00002417,0.00000429,-0.00
 001586,-0.00000109,0.00000056,0.00014981,-0.00003358,0.00002891,0.0000
 2978,-0.00002948,0.00001290,-0.00058137,0.00006426,0.00011475,-0.00000
 993,-0.00010457,-0.00013181,0.00095370,0.00132881,0.00055762,-0.000602
 24,0.00061699,0.00015329,0.00000009,0.00000030,0.00000615,0.00000226,0
 .00000317,-0.00000023,-0.00000299,-0.00000072,0.00000076,0.00000264,0.
 00000150,-0.00000359,0.00000080,-0.00000254,0.00000373,-0.00000183,0.0
 0000281,0.00000043,0.02522659,0.18831863,-0.00002936,0.00004089,-0.000
 02364,0.00001067,-0.00000824,0.00002503,0.00003786,0.00022135,0.000199
 72,0.00092755,0.00046840,0.00054784,-0.00211014,-0.00997918,-0.0106263
 0,-0.00000731,-0.00000735,-0.00001800,-0.00000347,0.00000693,-0.000016
 20,-0.02233464,-0.12822110,-0.17336695,0.00000234,-0.00000037,0.000002
 68,-0.00002333,-0.00000046,0.00002294,-0.00002032,0.00000144,0.0000022
 3,0.00021730,0.00003602,0.00001621,-0.00001934,0.00000907,-0.00005546,
 -0.00048735,-0.00008337,0.00058209,-0.00007595,0.00007882,-0.00000151,
 -0.00278022,0.00090525,-0.00015929,0.00017008,0.00023803,-0.00019628,0
 .00000306,-0.00000627,0.00000562,0.00000251,0.00000370,0.00000898,-0.0
 0000971,0.00000382,-0.00000002,0.00000538,0.00000546,-0.00000068,0.000
 00623,-0.00000391,0.00001076,-0.00001159,-0.00000075,0.00000029,0.0281
 5046,0.14124299,0.18705854,0.00005331,-0.00010726,0.00006999,0.0000038
 8,-0.00000266,-0.00001366,-0.00012950,-0.00016352,-0.00008576,0.001906
 23,0.00128474,-0.00084584,-0.00424339,0.02888120,-0.01340988,0.0000157
 9,0.00000803,-0.00000932,0.00000794,0.00000141,-0.00000623,-0.04832350
 ,0.02323385,-0.01065903,-0.00005325,-0.00002573,0.00004790,-0.00000071
 ,0.00000233,-0.00000074,0.00000800,-0.00000041,0.00000182,0.00002335,0
 .00003013,-0.00002290,0.00017061,-0.00023038,0.00016224,-0.00000429,-0
 .00006319,0.00008712,-0.00050875,-0.00077267,0.00059464,0.00124385,-0.
 00048691,0.00030298,-0.00563693,0.00025798,-0.00244161,-0.00000119,0.0
 0000460,0.00000561,-0.00000031,-0.00000191,-0.00000419,0.00000222,-0.0
 0000534,0.00000413,-0.00000432,-0.00000638,0.00000303,-0.00000248,0.00
 000234,-0.00000019,0.00000419,-0.00000093,0.00000232,-0.00086291,-0.00
 325530,0.00208633,0.05377986,0.00007141,-0.00003360,0.00005612,0.00001
 107,0.00000931,-0.00003473,0.00010618,0.00037726,-0.00028283,-0.000458
 57,0.00022734,-0.00013838,0.00031190,-0.00160034,0.00086111,-0.0000060
 6,-0.00000078,0.00000419,0.00000097,-0.00000730,0.00001129,0.02374499,
 -0.25597482,0.10083967,0.00001670,0.00002456,-0.00000602,0.00000190,-0
 .00000933,-0.00000285,0.00002078,-0.00000040,-0.00000130,-0.00002302,-
 0.00002638,-0.00000070,-0.00021746,0.00000356,-0.00004069,0.00002715,-
 0.00010479,0.00009459,0.00072056,0.00012849,-0.00029206,0.00048715,0.0
 0065003,0.00012084,0.00021476,0.00161303,0.00013253,-0.00000321,-0.000
 00181,-0.00000750,-0.00000409,0.00000301,0.00000452,0.00000550,0.00000
 248,0.00000006,-0.00000214,0.00000554,-0.00000242,-0.00000083,-0.00000
 059,-0.00000752,0.00000570,0.00000104,-0.00000048,0.00195089,-0.019093
 50,0.01051855,-0.02714138,0.27580747,-0.00000693,-0.00004903,-0.000017
 87,0.00001565,0.00000667,0.00001704,0.00006113,-0.00016080,0.00003474,
 0.00079450,-0.00059807,0.00029157,-0.00188436,0.01330735,-0.00700819,-
 0.00000671,-0.00000307,-0.00001633,-0.00000741,0.00000873,-0.00001132,
 -0.01079331,0.10064962,-0.09497710,-0.00001895,0.00000354,0.00002081,0
 .00000294,-0.00000291,0.00000157,-0.00001484,-0.00000255,0.00000087,-0
 .00002801,0.00000004,-0.00005930,0.00015475,-0.00004718,-0.00000897,-0
 .00006755,-0.00010725,0.00000401,-0.00025496,-0.00006322,0.00051547,0.
 00034723,0.00004237,-0.00023829,-0.00288654,-0.00020801,-0.00041479,0.
 00000596,0.00000136,0.00000964,0.00000457,-0.00000519,-0.00000146,-0.0
 0001068,0.00000168,0.00000041,0.00000129,-0.00000460,0.00000813,0.0000
 0295,0.00000599,0.00000383,-0.00000806,-0.00000362,-0.00000158,0.00248
 322,-0.02081190,0.01066056,0.01548913,-0.11170575,0.10055533,-0.000573
 73,0.00009473,-0.00060715,-0.00004137,-0.00003483,0.00027170,-0.000744
 19,-0.00030134,0.00198059,-0.00469861,0.00093687,-0.00527344,-0.019433
 45,-0.00339347,0.02217545,-0.00003148,-0.00003329,-0.00002078,-0.00003
 087,0.00003679,-0.00001286,-0.18235558,-0.01993425,0.13091438,0.000023
 23,-0.00002996,0.00000030,0.00002221,0.00002956,0.00000985,-0.00013399
 ,0.00000242,-0.00002067,0.00002734,-0.00009524,-0.00004450,0.00002174,
 0.00010159,-0.00001374,0.00026368,0.00018345,-0.00010488,0.00025900,-0
 .00013249,-0.00017371,0.00074474,-0.00071020,-0.00010998,0.00068267,0.
 00066020,0.00007657,0.00002394,-0.00000849,0.00001718,0.00001618,-0.00
 000302,0.00000634,-0.00003740,0.00001247,-0.00000677,0.00001501,0.0000
 0013,0.00000733,0.00002385,0.00000467,0.00001827,-0.00003688,-0.000010
 43,-0.00001005,0.00315136,0.00093310,-0.00370705,0.00255230,0.00015915
 ,-0.00337502,0.20029031,0.00004860,-0.00001122,0.00003247,0.00001078,0
 .00000548,-0.00001508,0.00013341,0.00061639,-0.00005138,0.00044013,0.0
 0015348,0.00033290,0.00223037,-0.00103619,-0.00254766,-0.00000191,-0.0
 0000151,-0.00000472,-0.00000109,-0.00000475,0.00000193,-0.02007656,-0.
 04930609,0.01901230,0.00000240,0.00000529,0.00000621,-0.00000389,0.000
 00147,-0.00000332,0.00000536,-0.00000255,0.00000095,0.00007011,-0.0000
 1949,0.00002643,-0.00009672,-0.00001358,-0.00004156,-0.00022879,0.0001
 2268,0.00038081,0.00028654,0.00032125,-0.00032780,-0.00041400,-0.00005
 567,0.00018671,0.00011076,-0.00001380,-0.00039578,0.00000003,0.0000014
 1,0.00000460,0.00000097,-0.00000175,-0.00000124,-0.00000187,-0.0000007
 2,0.00000211,0.00000021,-0.00000062,0.00000034,-0.00000004,0.00000214,
 -0.00000214,0.,0.00000042,-0.00000183,0.01739598,0.00270908,-0.0154697
 3,-0.02144263,-0.00199946,0.01974579,0.02153184,0.04852830,-0.00024702
 ,0.00002426,-0.00015218,-0.00006066,-0.00000855,0.00006915,-0.00068683
 ,-0.00001113,0.00073207,-0.00215126,0.00028223,-0.00123375,-0.01195904
 ,-0.00205417,0.01188810,0.00000989,-0.00000517,0.00000865,0.00000966,0
 .00000207,0.00001008,0.13182016,0.01904274,-0.17272290,0.00000413,-0.0
 0001405,-0.00001019,0.00000400,0.00001737,-0.00000652,-0.00002158,0.00
 000040,-0.00000649,0.00009464,-0.00002570,0.00003609,0.00006651,0.0000
 0644,0.00002946,-0.00022464,0.00025679,0.00016130,-0.00014925,-0.00019
 917,-0.00003504,0.00080192,-0.00020482,0.00059814,0.00083377,-0.000023
 89,0.00050464,-0.00000187,0.00000264,-0.00000666,-0.00000381,0.0000034
 0,-0.00000020,0.00000789,0.00000078,0.,-0.00000397,-0.00000353,-0.0000
 0077,-0.00000187,-0.00000047,-0.00000810,0.00000815,-0.00000095,-0.000
 00085,0.01520633,0.00390402,-0.01467918,0.00864211,-0.00012023,-0.0093
 6879,-0.14199736,-0.02087132,0.18419396\\0.00000097,0.00000110,0.00000
 534,0.00000526,0.00000056,-0.00000442,-0.00000052,0.00000058,-0.000005
 84,0.00000566,-0.00000173,0.00000672,-0.00000597,0.00000078,-0.0000048
 1,0.,-0.00000181,-0.00000252,-0.00000011,-0.00000264,0.00000061,0.0000
 0252,0.00000078,0.00000370,-0.00000047,-0.00000019,0.00000116,-0.00000
 046,0.00000235,-0.00000235,-0.00000182,0.00000063,0.00000197,-0.000000
 53,-0.00000279,0.00000147,0.00000137,0.00000036,0.00000054,-0.00000249
 ,0.00000287,-0.00000065,-0.00000072,0.00000127,-0.00000065,0.00000056,
 -0.00000158,0.00000065,0.00000080,0.00000072,0.00000022,-0.00000023,-0
 .00000174,-0.00000138,-0.00000139,0.00000102,-0.00000126,-0.00000225,-
 0.00000001,-0.00000224,0.00000055,-0.00000170,0.00000300,0.00000055,0.
 00000041,-0.00000034,-0.00000014,-0.00000306,0.00000127,-0.00000050,0.
 00000286,-0.00000065,-0.00000048,0.00000057,0.00000143,-0.00000018,0.0
 0000040,-0.00000097\\\@


 THERE IS MORE TO LIFE THAN INCREASING ITS SPEED.

                                       -- GANDHI
 Job cpu time:       0 days  3 hours 21 minutes 29.6 seconds.
 Elapsed time:       0 days  0 hours 12 minutes 39.5 seconds.
 File lengths (MBytes):  RWF=    195 Int=      0 D2E=      0 Chk=      9 Scr=      1
 Normal termination of Gaussian 16 at Sat Sep 20 17:26:51 2025.
