 Entering Gaussian System, Link 0=g16
 Input=MLTE0137.gjf
 Output=MLTE0137.log
 Initial command:
 /usr/local/g16/l1.exe "/dados_01/scratch/Gau-2157066.inp" -scrdir="/dados_01/scratch/"
 Entering Link 1 = /usr/local/g16/l1.exe PID=   2157067.
  
 Copyright (c) 1988-2017, Gaussian, Inc.  All Rights Reserved.
  
 This is part of the Gaussian(R) 16 program.  It is based on
 the Gaussian(R) 09 system (copyright 2009, Gaussian, Inc.),
 the Gaussian(R) 03 system (copyright 2003, Gaussian, Inc.),
 the Gaussian(R) 98 system (copyright 1998, Gaussian, Inc.),
 the Gaussian(R) 94 system (copyright 1995, Gaussian, Inc.),
 the Gaussian 92(TM) system (copyright 1992, Gaussian, Inc.),
 the Gaussian 90(TM) system (copyright 1990, Gaussian, Inc.),
 the Gaussian 88(TM) system (copyright 1988, Gaussian, Inc.),
 the Gaussian 86(TM) system (copyright 1986, Carnegie Mellon
 University), and the Gaussian 82(TM) system (copyright 1983,
 Carnegie Mellon University). Gaussian is a federally registered
 trademark of Gaussian, Inc.
  
 This software contains proprietary and confidential information,
 including trade secrets, belonging to Gaussian, Inc.
  
 This software is provided under written license and may be
 used, copied, transmitted, or stored only in accord with that
 written license.
  
 The following legend is applicable only to US Government
 contracts under FAR:
  
                    RESTRICTED RIGHTS LEGEND
  
 Use, reproduction and disclosure by the US Government is
 subject to restrictions as set forth in subparagraphs (a)
 and (c) of the Commercial Computer Software - Restricted
 Rights clause in FAR 52.227-19.
  
 Gaussian, Inc.
 340 Quinnipiac St., Bldg. 40, Wallingford CT 06492
  
  
 ---------------------------------------------------------------
 Warning -- This program may not be used in any manner that
 competes with the business of Gaussian, Inc. or will provide
 assistance to any competitor of Gaussian, Inc.  The licensee
 of this program is prohibited from giving any competitor of
 Gaussian, Inc. access to this program.  By using this program,
 the user acknowledges that Gaussian, Inc. is engaged in the
 business of creating and licensing software in the field of
 computational chemistry and represents and warrants to the
 licensee that it is not a competitor of Gaussian, Inc. and that
 it will not use this program in any manner prohibited above.
 ---------------------------------------------------------------
  

 Cite this work as:
 Gaussian 16, Revision B.01,
 M. J. Frisch, G. W. Trucks, H. B. Schlegel, G. E. Scuseria, 
 M. A. Robb, J. R. Cheeseman, G. Scalmani, V. Barone, 
 G. A. Petersson, H. Nakatsuji, X. Li, M. Caricato, A. V. Marenich, 
 J. Bloino, B. G. Janesko, R. Gomperts, B. Mennucci, H. P. Hratchian, 
 J. V. Ortiz, A. F. Izmaylov, J. L. Sonnenberg, D. Williams-Young, 
 F. Ding, F. Lipparini, F. Egidi, J. Goings, B. Peng, A. Petrone, 
 T. Henderson, D. Ranasinghe, V. G. Zakrzewski, J. Gao, N. Rega, 
 G. Zheng, W. Liang, M. Hada, M. Ehara, K. Toyota, R. Fukuda, 
 J. Hasegawa, M. Ishida, T. Nakajima, Y. Honda, O. Kitao, H. Nakai, 
 T. Vreven, K. Throssell, J. A. Montgomery, Jr., J. E. Peralta, 
 F. Ogliaro, M. J. Bearpark, J. J. Heyd, E. N. Brothers, K. N. Kudin, 
 V. N. Staroverov, T. A. Keith, R. Kobayashi, J. Normand, 
 K. Raghavachari, A. P. Rendell, J. C. Burant, S. S. Iyengar, 
 J. Tomasi, M. Cossi, J. M. Millam, M. Klene, C. Adamo, R. Cammi, 
 J. W. Ochterski, R. L. Martin, K. Morokuma, O. Farkas, 
 J. B. Foresman, and D. J. Fox, Gaussian, Inc., Wallingford CT, 2016.
 
 ******************************************
 Gaussian 16:  ES64L-G16RevB.01 20-Dec-2017
                20-Sep-2025 
 ******************************************
 %nprocs=16
 Will use up to   16 processors via shared memory.
 %mem=40GB
 %chk=MLTE0137.chk
 ----------------------------------------------------------------------
 # opt freq=noraman M08HX/6-311++G** scf=xqc Empiricaldispersion=pfd In
 t(Grid=ultraFine)
 ----------------------------------------------------------------------
 1/18=20,19=15,26=4,38=1/1,3;
 2/9=110,12=2,17=6,18=5,40=1/2;
 3/5=4,6=6,7=1111,11=2,25=1,30=1,71=1,74=-74,75=-5,124=11/1,2,3;
 4//1;
 5/5=2,8=3,13=1,38=5/2,8;
 6/7=2,8=2,9=2,10=2,28=1/1;
 7//1,2,3,16;
 1/18=20,19=15,26=4/3(2);
 2/9=110/2;
 99//99;
 2/9=110/2;
 3/5=4,6=6,7=1111,11=2,25=1,30=1,71=1,74=-74,75=-5,124=11/1,2,3;
 4/5=5,16=3,69=1/1;
 5/5=2,8=3,13=1,38=5/2,8;
 7//1,2,3,16;
 1/18=20,19=15,26=4/3(-5);
 2/9=110/2;
 6/7=2,8=2,9=2,10=2,19=2,28=1/1;
 99/9=1/99;
 --------
 MLTE0137
 --------
 Symbolic Z-matrix:
 Charge =  0 Multiplicity = 1
 O                    -0.1247   -0.3784   -0.3919 
 O                    -1.6785    0.3057    1.2628 
 O                     3.13      1.2964   -0.2652 
 O                     1.5026   -2.1944    1.1603 
 O                    -1.3847   -2.8812   -0.5439 
 O                    -4.1414   -2.1228   -0.9927 
 O                    -4.4759    0.7282   -1.1004 
 O                     4.2965   -2.1309    0.227 
 O                     5.3002    0.5106    0.0765 
 O                     1.6821    3.2878   -1.4876 
 O                    -2.064     2.985     1.6168 
 C                     1.1607   -0.0593    0.1344 
 C                     2.0246   -1.3204    0.1584 
 C                    -1.0183   -0.797     0.638 
 C                     1.8068    1.0253   -0.731 
 C                    -2.0402   -1.824     0.1475 
 C                    -3.0825   -1.1885   -0.7706 
 C                    -3.6762    0.0647   -0.1243 
 C                     3.4812   -0.9874    0.4819 
 C                    -2.573     1.0012    0.3868 
 C                     3.9923    0.167    -0.3801 
 C                     1.0229    2.3327   -0.6763 
 C                    -3.1405    2.1796    1.1735 
 H                     1.066     0.3323    1.1584 
 H                     1.9469   -1.8581   -0.7946 
 H                    -0.4763   -1.2861    1.4484 
 H                     1.8637    0.7066   -1.7807 
 H                    -2.5564   -2.2685    1.0075 
 H                    -2.6501   -0.9634   -1.7533 
 H                    -4.3347   -0.2255    0.7046 
 H                    -2.0009    1.4058   -0.4559 
 H                     3.5753   -0.7572    1.5506 
 H                     4.0894   -0.122    -1.433 
 H                     0.9729    2.7322    0.3419 
 H                     0.0086    2.2108   -1.0609 
 H                    -3.6917    1.8423    2.0574 
 H                    -3.8036    2.7936    0.5574 
 H                     2.0726   -2.982     1.1835 
 H                    -0.8788   -2.4879   -1.2756 
 H                    -4.7218   -1.7532   -1.679 
 H                    -5.2454    0.1643   -1.286 
 H                     5.2144   -1.8872    0.4363 
 H                     5.3143    0.4499    1.0462 
 H                     2.586     3.3917   -1.1441 
 H                    -1.4758    2.4236    2.1504 
 

 GradGradGradGradGradGradGradGradGradGradGradGradGradGradGradGradGradGrad
 Berny optimization.
 Initialization pass.
                           ----------------------------
                           !    Initial Parameters    !
                           ! (Angstroms and Degrees)  !
 --------------------------                            --------------------------
 ! Name  Definition              Value          Derivative Info.                !
 --------------------------------------------------------------------------------
 ! R1    R(1,12)                 1.4252         estimate D2E/DX2                !
 ! R2    R(1,14)                 1.4263         estimate D2E/DX2                !
 ! R3    R(2,14)                 1.4291         estimate D2E/DX2                !
 ! R4    R(2,20)                 1.4322         estimate D2E/DX2                !
 ! R5    R(3,15)                 1.4287         estimate D2E/DX2                !
 ! R6    R(3,21)                 1.4256         estimate D2E/DX2                !
 ! R7    R(4,13)                 1.4283         estimate D2E/DX2                !
 ! R8    R(4,38)                 0.9725         estimate D2E/DX2                !
 ! R9    R(5,16)                 1.4232         estimate D2E/DX2                !
 ! R10   R(5,39)                 0.9726         estimate D2E/DX2                !
 ! R11   R(6,17)                 1.4295         estimate D2E/DX2                !
 ! R12   R(6,40)                 0.9718         estimate D2E/DX2                !
 ! R13   R(7,18)                 1.4257         estimate D2E/DX2                !
 ! R14   R(7,41)                 0.9719         estimate D2E/DX2                !
 ! R15   R(8,19)                 1.4273         estimate D2E/DX2                !
 ! R16   R(8,42)                 0.9725         estimate D2E/DX2                !
 ! R17   R(9,21)                 1.4273         estimate D2E/DX2                !
 ! R18   R(9,43)                 0.9717         estimate D2E/DX2                !
 ! R19   R(10,22)                1.416          estimate D2E/DX2                !
 ! R20   R(10,44)                0.9725         estimate D2E/DX2                !
 ! R21   R(11,23)                1.4156         estimate D2E/DX2                !
 ! R22   R(11,45)                0.9726         estimate D2E/DX2                !
 ! R23   R(12,13)                1.5288         estimate D2E/DX2                !
 ! R24   R(12,15)                1.5306         estimate D2E/DX2                !
 ! R25   R(12,24)                1.1004         estimate D2E/DX2                !
 ! R26   R(13,19)                1.5288         estimate D2E/DX2                !
 ! R27   R(13,25)                1.097          estimate D2E/DX2                !
 ! R28   R(14,16)                1.5296         estimate D2E/DX2                !
 ! R29   R(14,26)                1.0907         estimate D2E/DX2                !
 ! R30   R(15,22)                1.5254         estimate D2E/DX2                !
 ! R31   R(15,27)                1.0985         estimate D2E/DX2                !
 ! R32   R(16,17)                1.5275         estimate D2E/DX2                !
 ! R33   R(16,28)                1.0971         estimate D2E/DX2                !
 ! R34   R(17,18)                1.5299         estimate D2E/DX2                !
 ! R35   R(17,29)                1.097          estimate D2E/DX2                !
 ! R36   R(18,20)                1.5347         estimate D2E/DX2                !
 ! R37   R(18,30)                1.0977         estimate D2E/DX2                !
 ! R38   R(19,21)                1.5287         estimate D2E/DX2                !
 ! R39   R(19,32)                1.0973         estimate D2E/DX2                !
 ! R40   R(20,23)                1.5263         estimate D2E/DX2                !
 ! R41   R(20,31)                1.096          estimate D2E/DX2                !
 ! R42   R(21,33)                1.0962         estimate D2E/DX2                !
 ! R43   R(22,34)                1.0949         estimate D2E/DX2                !
 ! R44   R(22,35)                1.0916         estimate D2E/DX2                !
 ! R45   R(23,36)                1.0949         estimate D2E/DX2                !
 ! R46   R(23,37)                1.0937         estimate D2E/DX2                !
 ! A1    A(12,1,14)            111.3536         estimate D2E/DX2                !
 ! A2    A(14,2,20)            113.3179         estimate D2E/DX2                !
 ! A3    A(15,3,21)            112.5561         estimate D2E/DX2                !
 ! A4    A(13,4,38)            107.343          estimate D2E/DX2                !
 ! A5    A(16,5,39)            107.738          estimate D2E/DX2                !
 ! A6    A(17,6,40)            107.6703         estimate D2E/DX2                !
 ! A7    A(18,7,41)            107.7487         estimate D2E/DX2                !
 ! A8    A(19,8,42)            107.4542         estimate D2E/DX2                !
 ! A9    A(21,9,43)            108.5123         estimate D2E/DX2                !
 ! A10   A(22,10,44)           107.6008         estimate D2E/DX2                !
 ! A11   A(23,11,45)           107.6563         estimate D2E/DX2                !
 ! A12   A(1,12,13)            109.3152         estimate D2E/DX2                !
 ! A13   A(1,12,15)            109.3047         estimate D2E/DX2                !
 ! A14   A(1,12,24)            110.2253         estimate D2E/DX2                !
 ! A15   A(13,12,15)           110.7855         estimate D2E/DX2                !
 ! A16   A(13,12,24)           109.1215         estimate D2E/DX2                !
 ! A17   A(15,12,24)           108.0771         estimate D2E/DX2                !
 ! A18   A(4,13,12)            108.0138         estimate D2E/DX2                !
 ! A19   A(4,13,19)            109.4542         estimate D2E/DX2                !
 ! A20   A(4,13,25)            106.4728         estimate D2E/DX2                !
 ! A21   A(12,13,19)           111.2255         estimate D2E/DX2                !
 ! A22   A(12,13,25)           110.5281         estimate D2E/DX2                !
 ! A23   A(19,13,25)           110.9825         estimate D2E/DX2                !
 ! A24   A(1,14,2)             112.2513         estimate D2E/DX2                !
 ! A25   A(1,14,16)            112.5856         estimate D2E/DX2                !
 ! A26   A(1,14,26)            110.9013         estimate D2E/DX2                !
 ! A27   A(2,14,16)            110.4659         estimate D2E/DX2                !
 ! A28   A(2,14,26)            104.5207         estimate D2E/DX2                !
 ! A29   A(16,14,26)           105.6144         estimate D2E/DX2                !
 ! A30   A(3,15,12)            109.9417         estimate D2E/DX2                !
 ! A31   A(3,15,22)            107.5548         estimate D2E/DX2                !
 ! A32   A(3,15,27)            108.5794         estimate D2E/DX2                !
 ! A33   A(12,15,22)           111.7245         estimate D2E/DX2                !
 ! A34   A(12,15,27)           110.8895         estimate D2E/DX2                !
 ! A35   A(22,15,27)           108.0323         estimate D2E/DX2                !
 ! A36   A(5,16,14)            110.2944         estimate D2E/DX2                !
 ! A37   A(5,16,17)            109.3509         estimate D2E/DX2                !
 ! A38   A(5,16,28)            107.2515         estimate D2E/DX2                !
 ! A39   A(14,16,17)           111.6717         estimate D2E/DX2                !
 ! A40   A(14,16,28)           109.5729         estimate D2E/DX2                !
 ! A41   A(17,16,28)           108.582          estimate D2E/DX2                !
 ! A42   A(6,17,16)            109.0823         estimate D2E/DX2                !
 ! A43   A(6,17,18)            108.2729         estimate D2E/DX2                !
 ! A44   A(6,17,29)            106.6734         estimate D2E/DX2                !
 ! A45   A(16,17,18)           110.5902         estimate D2E/DX2                !
 ! A46   A(16,17,29)           110.7841         estimate D2E/DX2                !
 ! A47   A(18,17,29)           111.3037         estimate D2E/DX2                !
 ! A48   A(7,18,17)            108.0389         estimate D2E/DX2                !
 ! A49   A(7,18,20)            110.3185         estimate D2E/DX2                !
 ! A50   A(7,18,30)            107.6709         estimate D2E/DX2                !
 ! A51   A(17,18,20)           111.197          estimate D2E/DX2                !
 ! A52   A(17,18,30)           109.5869         estimate D2E/DX2                !
 ! A53   A(20,18,30)           109.9423         estimate D2E/DX2                !
 ! A54   A(8,19,13)            109.3864         estimate D2E/DX2                !
 ! A55   A(8,19,21)            108.2589         estimate D2E/DX2                !
 ! A56   A(8,19,32)            107.0393         estimate D2E/DX2                !
 ! A57   A(13,19,21)           111.3285         estimate D2E/DX2                !
 ! A58   A(13,19,32)           109.4816         estimate D2E/DX2                !
 ! A59   A(21,19,32)           111.2295         estimate D2E/DX2                !
 ! A60   A(2,20,18)            110.8745         estimate D2E/DX2                !
 ! A61   A(2,20,23)            106.9709         estimate D2E/DX2                !
 ! A62   A(2,20,31)            108.8777         estimate D2E/DX2                !
 ! A63   A(18,20,23)           112.0556         estimate D2E/DX2                !
 ! A64   A(18,20,31)           110.1477         estimate D2E/DX2                !
 ! A65   A(23,20,31)           107.7813         estimate D2E/DX2                !
 ! A66   A(3,21,9)             109.7413         estimate D2E/DX2                !
 ! A67   A(3,21,19)            110.5227         estimate D2E/DX2                !
 ! A68   A(3,21,33)            109.869          estimate D2E/DX2                !
 ! A69   A(9,21,19)            107.9252         estimate D2E/DX2                !
 ! A70   A(9,21,33)            106.8329         estimate D2E/DX2                !
 ! A71   A(19,21,33)           111.8483         estimate D2E/DX2                !
 ! A72   A(10,22,15)           108.5624         estimate D2E/DX2                !
 ! A73   A(10,22,34)           107.9369         estimate D2E/DX2                !
 ! A74   A(10,22,35)           107.8204         estimate D2E/DX2                !
 ! A75   A(15,22,34)           111.6875         estimate D2E/DX2                !
 ! A76   A(15,22,35)           111.6643         estimate D2E/DX2                !
 ! A77   A(34,22,35)           109.0235         estimate D2E/DX2                !
 ! A78   A(11,23,20)           108.5369         estimate D2E/DX2                !
 ! A79   A(11,23,36)           107.7751         estimate D2E/DX2                !
 ! A80   A(11,23,37)           108.5441         estimate D2E/DX2                !
 ! A81   A(20,23,36)           111.4338         estimate D2E/DX2                !
 ! A82   A(20,23,37)           111.623          estimate D2E/DX2                !
 ! A83   A(36,23,37)           108.8119         estimate D2E/DX2                !
 ! D1    D(14,1,12,13)          88.7065         estimate D2E/DX2                !
 ! D2    D(14,1,12,15)        -149.8799         estimate D2E/DX2                !
 ! D3    D(14,1,12,24)         -31.2308         estimate D2E/DX2                !
 ! D4    D(12,1,14,2)           86.3129         estimate D2E/DX2                !
 ! D5    D(12,1,14,16)        -148.2824         estimate D2E/DX2                !
 ! D6    D(12,1,14,26)         -30.1892         estimate D2E/DX2                !
 ! D7    D(20,2,14,1)           66.2166         estimate D2E/DX2                !
 ! D8    D(20,2,14,16)         -60.3398         estimate D2E/DX2                !
 ! D9    D(20,2,14,26)        -173.5084         estimate D2E/DX2                !
 ! D10   D(14,2,20,18)          60.2775         estimate D2E/DX2                !
 ! D11   D(14,2,20,23)        -177.2726         estimate D2E/DX2                !
 ! D12   D(14,2,20,31)         -61.0543         estimate D2E/DX2                !
 ! D13   D(21,3,15,12)          63.2079         estimate D2E/DX2                !
 ! D14   D(21,3,15,22)        -174.9375         estimate D2E/DX2                !
 ! D15   D(21,3,15,27)         -58.2669         estimate D2E/DX2                !
 ! D16   D(15,3,21,9)          178.9009         estimate D2E/DX2                !
 ! D17   D(15,3,21,19)         -62.1855         estimate D2E/DX2                !
 ! D18   D(15,3,21,33)          61.7184         estimate D2E/DX2                !
 ! D19   D(38,4,13,12)        -178.5298         estimate D2E/DX2                !
 ! D20   D(38,4,13,19)         -57.2906         estimate D2E/DX2                !
 ! D21   D(38,4,13,25)          62.7402         estimate D2E/DX2                !
 ! D22   D(39,5,16,14)         -57.2376         estimate D2E/DX2                !
 ! D23   D(39,5,16,17)          65.9358         estimate D2E/DX2                !
 ! D24   D(39,5,16,28)        -176.5021         estimate D2E/DX2                !
 ! D25   D(40,6,17,16)        -171.6759         estimate D2E/DX2                !
 ! D26   D(40,6,17,18)          67.9185         estimate D2E/DX2                !
 ! D27   D(40,6,17,29)         -51.9686         estimate D2E/DX2                !
 ! D28   D(41,7,18,17)          67.7372         estimate D2E/DX2                !
 ! D29   D(41,7,18,20)        -170.5214         estimate D2E/DX2                !
 ! D30   D(41,7,18,30)         -50.5426         estimate D2E/DX2                !
 ! D31   D(42,8,19,13)         179.6712         estimate D2E/DX2                !
 ! D32   D(42,8,19,21)          58.1969         estimate D2E/DX2                !
 ! D33   D(42,8,19,32)         -61.7981         estimate D2E/DX2                !
 ! D34   D(43,9,21,3)           81.663          estimate D2E/DX2                !
 ! D35   D(43,9,21,19)         -38.8383         estimate D2E/DX2                !
 ! D36   D(43,9,21,33)        -159.2701         estimate D2E/DX2                !
 ! D37   D(44,10,22,15)        -58.6832         estimate D2E/DX2                !
 ! D38   D(44,10,22,34)         62.5444         estimate D2E/DX2                !
 ! D39   D(44,10,22,35)       -179.8145         estimate D2E/DX2                !
 ! D40   D(45,11,23,20)        -57.5945         estimate D2E/DX2                !
 ! D41   D(45,11,23,36)         63.2186         estimate D2E/DX2                !
 ! D42   D(45,11,23,37)       -179.0897         estimate D2E/DX2                !
 ! D43   D(1,12,13,4)          -69.8008         estimate D2E/DX2                !
 ! D44   D(1,12,13,19)         170.0665         estimate D2E/DX2                !
 ! D45   D(1,12,13,25)          46.3132         estimate D2E/DX2                !
 ! D46   D(15,12,13,4)         169.6861         estimate D2E/DX2                !
 ! D47   D(15,12,13,19)         49.5534         estimate D2E/DX2                !
 ! D48   D(15,12,13,25)        -74.1999         estimate D2E/DX2                !
 ! D49   D(24,12,13,4)          50.8125         estimate D2E/DX2                !
 ! D50   D(24,12,13,19)        -69.3203         estimate D2E/DX2                !
 ! D51   D(24,12,13,25)        166.9265         estimate D2E/DX2                !
 ! D52   D(1,12,15,3)         -176.4002         estimate D2E/DX2                !
 ! D53   D(1,12,15,22)          64.2624         estimate D2E/DX2                !
 ! D54   D(1,12,15,27)         -56.3169         estimate D2E/DX2                !
 ! D55   D(13,12,15,3)         -55.8809         estimate D2E/DX2                !
 ! D56   D(13,12,15,22)       -175.2182         estimate D2E/DX2                !
 ! D57   D(13,12,15,27)         64.2024         estimate D2E/DX2                !
 ! D58   D(24,12,15,3)          63.6219         estimate D2E/DX2                !
 ! D59   D(24,12,15,22)        -55.7154         estimate D2E/DX2                !
 ! D60   D(24,12,15,27)       -176.2948         estimate D2E/DX2                !
 ! D61   D(4,13,19,8)           72.5479         estimate D2E/DX2                !
 ! D62   D(4,13,19,21)        -167.8508         estimate D2E/DX2                !
 ! D63   D(4,13,19,32)         -44.452          estimate D2E/DX2                !
 ! D64   D(12,13,19,8)        -168.1757         estimate D2E/DX2                !
 ! D65   D(12,13,19,21)        -48.5743         estimate D2E/DX2                !
 ! D66   D(12,13,19,32)         74.8244         estimate D2E/DX2                !
 ! D67   D(25,13,19,8)         -44.6814         estimate D2E/DX2                !
 ! D68   D(25,13,19,21)         74.9199         estimate D2E/DX2                !
 ! D69   D(25,13,19,32)       -161.6813         estimate D2E/DX2                !
 ! D70   D(1,14,16,5)           50.1809         estimate D2E/DX2                !
 ! D71   D(1,14,16,17)         -71.6291         estimate D2E/DX2                !
 ! D72   D(1,14,16,28)         168.0252         estimate D2E/DX2                !
 ! D73   D(2,14,16,5)          176.5507         estimate D2E/DX2                !
 ! D74   D(2,14,16,17)          54.7407         estimate D2E/DX2                !
 ! D75   D(2,14,16,28)         -65.605          estimate D2E/DX2                !
 ! D76   D(26,14,16,5)         -70.9805         estimate D2E/DX2                !
 ! D77   D(26,14,16,17)        167.2094         estimate D2E/DX2                !
 ! D78   D(26,14,16,28)         46.8637         estimate D2E/DX2                !
 ! D79   D(3,15,22,10)          58.7887         estimate D2E/DX2                !
 ! D80   D(3,15,22,34)         -60.1037         estimate D2E/DX2                !
 ! D81   D(3,15,22,35)         177.5235         estimate D2E/DX2                !
 ! D82   D(12,15,22,10)        179.5273         estimate D2E/DX2                !
 ! D83   D(12,15,22,34)         60.6349         estimate D2E/DX2                !
 ! D84   D(12,15,22,35)        -61.7379         estimate D2E/DX2                !
 ! D85   D(27,15,22,10)        -58.2395         estimate D2E/DX2                !
 ! D86   D(27,15,22,34)       -177.1319         estimate D2E/DX2                !
 ! D87   D(27,15,22,35)         60.4953         estimate D2E/DX2                !
 ! D88   D(5,16,17,6)           68.4071         estimate D2E/DX2                !
 ! D89   D(5,16,17,18)        -172.6213         estimate D2E/DX2                !
 ! D90   D(5,16,17,29)         -48.7241         estimate D2E/DX2                !
 ! D91   D(14,16,17,6)        -169.2403         estimate D2E/DX2                !
 ! D92   D(14,16,17,18)        -50.2687         estimate D2E/DX2                !
 ! D93   D(14,16,17,29)         73.6285         estimate D2E/DX2                !
 ! D94   D(28,16,17,6)         -48.3159         estimate D2E/DX2                !
 ! D95   D(28,16,17,18)         70.6557         estimate D2E/DX2                !
 ! D96   D(28,16,17,29)       -165.4471         estimate D2E/DX2                !
 ! D97   D(6,17,18,7)          -69.5951         estimate D2E/DX2                !
 ! D98   D(6,17,18,20)         169.2075         estimate D2E/DX2                !
 ! D99   D(6,17,18,30)          47.4525         estimate D2E/DX2                !
 ! D100  D(16,17,18,7)         170.9441         estimate D2E/DX2                !
 ! D101  D(16,17,18,20)         49.7467         estimate D2E/DX2                !
 ! D102  D(16,17,18,30)        -72.0082         estimate D2E/DX2                !
 ! D103  D(29,17,18,7)          47.346          estimate D2E/DX2                !
 ! D104  D(29,17,18,20)        -73.8514         estimate D2E/DX2                !
 ! D105  D(29,17,18,30)        164.3936         estimate D2E/DX2                !
 ! D106  D(7,18,20,2)         -173.9704         estimate D2E/DX2                !
 ! D107  D(7,18,20,23)          66.5862         estimate D2E/DX2                !
 ! D108  D(7,18,20,31)         -53.3888         estimate D2E/DX2                !
 ! D109  D(17,18,20,2)         -54.1178         estimate D2E/DX2                !
 ! D110  D(17,18,20,23)       -173.5612         estimate D2E/DX2                !
 ! D111  D(17,18,20,31)         66.4638         estimate D2E/DX2                !
 ! D112  D(30,18,20,2)          67.43           estimate D2E/DX2                !
 ! D113  D(30,18,20,23)        -52.0134         estimate D2E/DX2                !
 ! D114  D(30,18,20,31)       -171.9884         estimate D2E/DX2                !
 ! D115  D(8,19,21,3)          174.1532         estimate D2E/DX2                !
 ! D116  D(8,19,21,9)          -65.8366         estimate D2E/DX2                !
 ! D117  D(8,19,21,33)          51.3962         estimate D2E/DX2                !
 ! D118  D(13,19,21,3)          53.8845         estimate D2E/DX2                !
 ! D119  D(13,19,21,9)         173.8946         estimate D2E/DX2                !
 ! D120  D(13,19,21,33)        -68.8726         estimate D2E/DX2                !
 ! D121  D(32,19,21,3)         -68.5117         estimate D2E/DX2                !
 ! D122  D(32,19,21,9)          51.4984         estimate D2E/DX2                !
 ! D123  D(32,19,21,33)        168.7312         estimate D2E/DX2                !
 ! D124  D(2,20,23,11)          57.8184         estimate D2E/DX2                !
 ! D125  D(2,20,23,36)         -60.7068         estimate D2E/DX2                !
 ! D126  D(2,20,23,37)         177.4053         estimate D2E/DX2                !
 ! D127  D(18,20,23,11)        179.5273         estimate D2E/DX2                !
 ! D128  D(18,20,23,36)         61.0021         estimate D2E/DX2                !
 ! D129  D(18,20,23,37)        -60.8858         estimate D2E/DX2                !
 ! D130  D(31,20,23,11)        -59.1259         estimate D2E/DX2                !
 ! D131  D(31,20,23,36)       -177.6511         estimate D2E/DX2                !
 ! D132  D(31,20,23,37)         60.4611         estimate D2E/DX2                !
 --------------------------------------------------------------------------------
 Trust Radius=3.00D-01 FncErr=1.00D-07 GrdErr=1.00D-06 EigMax=2.50D+02 EigMin=1.00D-04
 Number of steps in this run=    270 maximum allowed number of steps=    270.
 GradGradGradGradGradGradGradGradGradGradGradGradGradGradGradGradGradGrad

                          Input orientation:                          
 ---------------------------------------------------------------------
 Center     Atomic      Atomic             Coordinates (Angstroms)
 Number     Number       Type             X           Y           Z
 ---------------------------------------------------------------------
      1          8           0       -0.124700   -0.378400   -0.391900
      2          8           0       -1.678500    0.305700    1.262800
      3          8           0        3.130000    1.296400   -0.265200
      4          8           0        1.502600   -2.194400    1.160300
      5          8           0       -1.384700   -2.881200   -0.543900
      6          8           0       -4.141400   -2.122800   -0.992700
      7          8           0       -4.475900    0.728200   -1.100400
      8          8           0        4.296500   -2.130900    0.227000
      9          8           0        5.300200    0.510600    0.076500
     10          8           0        1.682100    3.287800   -1.487600
     11          8           0       -2.064000    2.985000    1.616800
     12          6           0        1.160700   -0.059300    0.134400
     13          6           0        2.024600   -1.320400    0.158400
     14          6           0       -1.018300   -0.797000    0.638000
     15          6           0        1.806800    1.025300   -0.731000
     16          6           0       -2.040200   -1.824000    0.147500
     17          6           0       -3.082500   -1.188500   -0.770600
     18          6           0       -3.676200    0.064700   -0.124300
     19          6           0        3.481200   -0.987400    0.481900
     20          6           0       -2.573000    1.001200    0.386800
     21          6           0        3.992300    0.167000   -0.380100
     22          6           0        1.022900    2.332700   -0.676300
     23          6           0       -3.140500    2.179600    1.173500
     24          1           0        1.066000    0.332300    1.158400
     25          1           0        1.946900   -1.858100   -0.794600
     26          1           0       -0.476300   -1.286100    1.448400
     27          1           0        1.863700    0.706600   -1.780700
     28          1           0       -2.556400   -2.268500    1.007500
     29          1           0       -2.650100   -0.963400   -1.753300
     30          1           0       -4.334700   -0.225500    0.704600
     31          1           0       -2.000900    1.405800   -0.455900
     32          1           0        3.575300   -0.757200    1.550600
     33          1           0        4.089400   -0.122000   -1.433000
     34          1           0        0.972900    2.732200    0.341900
     35          1           0        0.008600    2.210800   -1.060900
     36          1           0       -3.691700    1.842300    2.057400
     37          1           0       -3.803600    2.793600    0.557400
     38          1           0        2.072600   -2.982000    1.183500
     39          1           0       -0.878800   -2.487900   -1.275600
     40          1           0       -4.721800   -1.753200   -1.679000
     41          1           0       -5.245400    0.164300   -1.286000
     42          1           0        5.214400   -1.887200    0.436300
     43          1           0        5.314300    0.449900    1.046200
     44          1           0        2.586000    3.391700   -1.144100
     45          1           0       -1.475800    2.423600    2.150400
 ---------------------------------------------------------------------
                    Distance matrix (angstroms):
                    1          2          3          4          5
     1  O    0.000000
     2  O    2.370721   0.000000
     3  O    3.662524   5.141784   0.000000
     4  O    2.890551   4.047271   4.106844   0.000000
     5  O    2.806192   3.675162   6.157315   3.422352   0.000000
     6  O    4.420155   4.129258   8.068051   6.041132   2.894130
     7  O    4.545270   3.686281   7.672687   7.028145   4.784661
     8  O    4.795967   6.535329   3.653679   2.946347   5.782151
     9  O    5.517179   7.081776   2.333240   4.786796   7.521774
    10  O    4.231561   5.267946   2.748882   6.090822   6.953588
    11  O    4.371295   2.729940   5.776758   6.305173   6.288273
    12  C    1.425156   3.076941   2.423994   2.393328   3.860346
    13  C    2.410329   4.192475   2.872105   1.428343   3.814793
    14  C    1.426338   1.429051   4.733549   2.929242   2.423845
    15  C    2.411650   4.079262   1.428749   3.746468   5.047913
    16  C    2.459645   2.431120   6.052948   3.703295   1.423161
    17  C    3.090025   2.887657   6.710090   5.075761   2.408143
    18  C    3.589025   2.443958   6.918186   5.794282   3.755711
    19  C    3.759910   5.376283   2.428424   2.414940   5.321252
    20  C    2.916135   1.432210   5.747735   5.236476   4.165488
    21  C    4.152986   5.905619   1.425590   3.761336   6.183080
    22  C    2.957690   3.894406   2.383861   4.908956   5.744460
    23  C    4.253104   2.378428   6.493772   6.378905   5.625299
    24  H    2.079974   2.746614   2.686303   2.564144   4.385241
    25  H    2.577442   4.696642   3.410405   2.032765   3.494158
    26  H    2.081885   2.003387   4.755116   2.196373   2.709021
    27  H    2.657014   4.687301   2.061097   4.146767   4.995406
    28  H    3.382893   2.731738   6.831063   4.062551   2.038412
    29  H    2.928016   3.413427   6.382060   5.220090   2.596506
    30  H    4.353136   2.765711   7.679742   6.177241   4.161009
    31  H    2.589902   2.065936   5.135608   5.277126   4.331953
    32  H    4.196045   5.367960   2.777174   2.552247   5.787910
    33  H    4.348364   6.381139   2.072695   4.208513   6.194308
    34  H    3.379204   3.710240   2.661423   5.022126   6.152494
    35  H    2.677552   3.446055   3.348493   5.154760   5.304436
    36  H    4.863545   2.654337   7.226899   6.639314   5.865191
    37  H    4.949450   3.347131   7.140944   7.307489   6.266362
    38  H    3.753498   4.988588   4.639131   0.972498   3.866134
    39  H    2.408232   3.858393   5.604669   3.419184   0.972628
    40  H    4.967900   4.706903   8.541057   6.855614   3.700956
    41  H    5.226424   4.386246   8.512991   7.555353   4.973006
    42  H    5.609669   7.280383   3.869384   3.794207   6.745143
    43  H    5.686557   6.997640   2.684679   4.640517   7.648611
    44  H    4.703972   5.788136   2.336383   6.139098   7.448219
    45  H    4.017457   2.305303   5.321569   5.583645   5.950500
                    6          7          8          9         10
     6  O    0.000000
     7  O    2.872576   0.000000
     8  O    8.525602   9.321558   0.000000
     9  O    9.860111   9.849090   2.829768   0.000000
    10  O    7.964463   6.680003   6.255977   4.821815   0.000000
    11  O    6.100385   4.277100   8.280093   7.920014   4.874654
    12  C    5.800056   5.823757   3.759434   4.178947   3.755772
    13  C    6.323641   6.930934   2.413120   3.753508   4.905316
    14  C    3.764397   4.159720   5.495026   6.476769   5.338158
    15  C    6.734991   6.300559   4.132550   3.622267   2.388912
    16  C    2.409228   3.742140   6.344626   7.703043   6.531429
    17  C    1.429515   2.392503   7.505529   8.595009   6.576683
    18  C    2.399101   1.425666   8.276957   8.989711   6.399870
    19  C    7.846503   8.292310   1.427333   2.391049   5.039149
    20  C    3.757962   2.430498   7.551531   7.894571   5.181485
    21  C    8.472045   8.517288   2.396133   1.427287   4.037694
    22  C    6.828000   5.743786   5.608577   4.709783   1.415969
    23  C    4.919844   3.010063   8.647846   8.673776   5.618455
    24  H    6.145874   5.997630   4.167852   4.373871   4.014458
    25  H    6.097270   6.930716   2.576569   4.196925   5.199101
    26  H    4.482409   5.152726   4.998512   6.203079   5.848021
    27  H    6.684884   6.376033   4.242733   3.911156   2.604127
    28  H    2.556219   4.136174   6.898576   8.385483   7.420436
    29  H    2.036344   2.573195   7.317096   8.290242   6.075463
    30  H    2.553026   2.046340   8.851907   9.683370   7.304170
    31  H    4.161840   2.645779   7.254781   7.375018   4.262724
    32  H    8.238974   8.605582   2.039387   2.599147   5.401564
    33  H    8.481930   8.613816   2.614224   2.035881   4.174304
    34  H    7.176925   5.982112   5.891457   4.871496   2.039296
    35  H    6.000603   4.723389   6.236596   5.673217   2.035339
    36  H    5.022684   3.439170   9.107580   9.303314   6.598047
    37  H    5.166034   2.732428   9.485330   9.398007   5.875301
    38  H    6.639870   7.865408   2.566124   4.882735   6.826248
    39  H    3.295131   4.828366   5.400832   6.999944   6.321540
    40  H    0.971842   2.559803   9.225249  10.423390   8.152193
    41  H    2.556495   0.971885   9.930003  10.638891   7.601786
    42  H    9.467235  10.153998   0.972490   2.426162   6.554324
    43  H   10.009304  10.026632   2.892669   0.971700   5.259914
    44  H    8.700031   7.547620   5.941787   4.142159   0.972534
    45  H    6.136306   4.737371   7.600157   7.339946   4.894305
                   11         12         13         14         15
    11  O    0.000000
    12  C    4.675892   0.000000
    13  C    6.113923   1.528814   0.000000
    14  C    4.044139   2.354964   3.124613   0.000000
    15  C    4.933121   1.530595   2.518090   3.629894   0.000000
    16  C    5.028508   3.655147   4.095892   1.529575   4.867205
    17  C    4.914786   4.483176   5.192582   2.529496   5.367284
    18  C    3.762814   4.845400   5.873461   2.896215   5.599476
    19  C    6.914998   2.523261   1.528798   4.506231   2.885429
    20  C    2.389026   3.889586   5.155572   2.390338   4.520255
    21  C    6.971908   2.886846   2.524715   5.203070   2.374072
    22  C    3.900353   2.529405   3.878823   3.960922   1.525381
    23  C    1.415640   4.959105   6.321288   3.694677   5.425431
    24  H    4.128420   1.100407   2.156463   2.427023   2.144497
    25  H    6.734819   2.171827   1.096981   3.459868   2.887502
    26  H    4.559764   2.431338   2.814210   1.090748   3.912148
    27  H    5.671062   2.179087   2.809756   4.051771   1.098489
    28  H    5.311588   4.411315   4.754516   2.160462   5.736638
    29  H    5.224074   4.347759   5.063089   2.899789   4.986380
    30  H    4.036768   5.527402   6.475943   3.365941   6.429889
    31  H    2.606519   3.534217   4.900427   2.648480   3.836540
    32  H    6.768319   2.884958   2.158723   4.683544   3.392727
    33  H    7.537842   3.322342   2.869166   5.552771   2.649408
    34  H    3.303338   2.805494   4.190861   4.062980   2.181745
    35  H    3.473490   2.812371   4.245035   3.603838   2.178937
    36  H    2.036983   5.555160   6.803305   4.015927   6.219016
    37  H    2.045769   5.741275   7.145076   4.544975   6.021914
    38  H    7.273534   3.236410   1.952959   3.824325   4.449091
    39  H    6.302643   3.470700   3.442259   2.557434   4.455515
    40  H    6.354269   6.384475   7.005517   4.471993   7.158309
    41  H    5.148194   6.565489   7.559334   4.742810   7.126210
    42  H    8.837818   4.457000   3.251663   6.330542   4.632168
    43  H    7.822508   4.282880   3.839828   6.467087   3.973925
    44  H    5.423142   3.946574   4.920931   5.806209   2.525402
    45  H    0.972563   4.144898   5.498945   3.587328   4.586194
                   16         17         18         19         20
    16  C    0.000000
    17  C    1.527468   0.000000
    18  C    2.513475   1.529933   0.000000
    19  C    5.594424   6.685159   7.259667   0.000000
    20  C    2.884943   2.528626   1.534701   6.373140   0.000000
    21  C    6.374441   7.214060   7.673447   1.528694   6.662371
    22  C    5.228708   5.409441   5.246910   4.290423   3.979142
    23  C    4.276932   3.889343   2.538516   7.372592   1.526296
    24  H    3.914081   4.821195   4.919897   2.834158   3.779565
    25  H    4.097033   5.073835   5.980444   2.177532   5.477298
    26  H    2.104153   3.424290   3.812795   4.084746   3.279464
    27  H    5.036102   5.392272   5.817748   3.256578   4.946630
    28  H    1.097107   2.145885   2.824667   6.194359   3.328135
    29  H    2.173856   1.096968   2.182547   6.526066   2.906136
    30  H    2.851367   2.161386   1.097686   7.856105   2.170110
    31  H    3.285916   2.828301   2.171437   6.054775   1.095967
    32  H    5.885626   7.064014   7.487661   1.097254   6.499846
    33  H    6.554905   7.280958   7.877315   2.187617   6.997201
    34  H    5.465850   5.749419   5.380244   4.488496   3.946110
    35  H    4.683740   4.603739   4.365858   4.966655   3.197441
    36  H    4.451621   4.189804   2.814235   7.870190   2.179414
    37  H    4.959821   4.259189   2.815642   8.207921   2.180866
    38  H    4.396520   5.797431   6.636371   2.540635   6.171079
    39  H    1.953158   2.607635   3.958119   4.934562   4.219918
    40  H    3.245319   1.957391   2.610581   8.517344   4.058521
    41  H    4.035042   2.602660   1.954957   8.978053   3.261960
    42  H    7.260621   8.413283   9.119592   1.953382   8.305956
    43  H    7.750287   8.745934   9.074555   2.396773   7.933993
    44  H    7.090380   7.297234   7.164082   4.756235   5.888415
    45  H    4.729933   4.915383   3.947205   6.244250   2.517410
                   21         22         23         24         25
    21  C    0.000000
    22  C    3.687184   0.000000
    23  C    7.572388   4.558410   0.000000
    24  H    3.310217   2.714697   4.594278   0.000000
    25  H    2.908006   4.293085   6.786610   3.063992   0.000000
    26  H    5.042152   4.456194   4.380024   2.254331   3.351139
    27  H    2.604570   2.137954   5.994918   3.068344   2.749000
    28  H    7.123382   6.067752   4.489357   4.461918   4.867823
    29  H    6.876406   5.051251   4.322626   4.895532   4.780377
    30  H    8.406519   6.095502   2.725892   5.448361   6.661192
    31  H    6.120361   3.170345   2.133635   3.628256   5.133506
    32  H    2.180742   4.584900   7.339548   2.763588   3.060005
    33  H    1.096151   4.000196   8.022634   4.007829   2.830531
    34  H    4.027196   1.094912   4.232846   2.536703   4.828163
    35  H    4.528849   1.091596   3.861392   3.093889   4.514850
    36  H    8.233583   5.471843   1.094930   5.071884   7.322614
    37  H    8.279734   5.002954   1.093744   5.489281   7.518941
    38  H    4.005783   5.727719   7.336118   3.463879   2.278559
    39  H    5.619433   5.216686   5.735759   4.202396   2.934721
    40  H    9.017197   7.120503   5.109225   6.774864   6.727907
    41  H    9.282013   6.660727   3.813290   6.770309   7.487373
    42  H    2.525822   6.050959   9.321302   4.759919   3.491779
    43  H    1.965209   4.992800   8.630858   4.251408   4.478258
    44  H    3.600009   1.945148   6.295495   4.119689   5.300094
    45  H    6.433956   3.773857   1.945532   3.437782   6.222608
                   26         27         28         29         30
    26  H    0.000000
    27  H    4.457975   0.000000
    28  H    2.342289   6.013532   0.000000
    29  H    3.883352   4.812904   3.055173   0.000000
    30  H    4.070057   6.742825   2.725426   3.069796   0.000000
    31  H    3.632780   4.144769   3.993820   2.778096   3.074821
    32  H    4.087254   4.021175   6.338512   7.050807   7.972862
    33  H    5.522971   2.400253   7.397984   6.799368   8.691692
    34  H    4.412625   3.066270   6.156783   5.583319   6.086884
    35  H    4.331284   2.494419   5.560722   4.198053   5.283635
    36  H    4.527313   6.847138   4.392024   4.845443   2.553295
    37  H    5.339359   6.476154   5.232872   4.559051   3.068990
    38  H    3.072969   4.736654   4.686971   5.916370   6.991504
    39  H    3.004414   4.240432   2.841659   2.385330   4.580709
    40  H    5.293683   7.030631   3.488807   2.218388   2.857492
    41  H    5.685501   7.146896   4.290615   2.868041   2.223467
    42  H    5.811173   4.782267   7.801089   8.215724   9.696316
    43  H    6.058590   4.468098   8.327011   8.559573   9.678639
    44  H    6.162836   2.852497   7.944276   6.837746   8.024831
    45  H    3.905596   5.436350   4.948709   5.299964   4.157088
                   31         32         33         34         35
    31  H    0.000000
    32  H    6.308615   0.000000
    33  H    6.354577   3.093485   0.000000
    34  H    3.352508   4.517671   4.583590   0.000000
    35  H    2.247697   5.324500   4.715225   1.780332   0.000000
    36  H    3.060394   7.734568   8.751393   5.049095   4.853020
    37  H    2.490480   8.248805   8.646494   4.781753   4.182274
    38  H    6.207562   2.709724   4.369571   5.879601   6.021844
    39  H    4.134237   5.551733   5.505022   5.770142   4.786581
    40  H    4.344946   8.959029   8.964294   7.525454   6.202582
    41  H    3.571718   9.311295   9.340346   6.921808   5.642991
    42  H    7.981255   2.281494   2.806392   6.272008   6.792317
    43  H    7.528758   2.176150   2.823806   4.955067   5.974202
    44  H    5.045500   5.045146   3.832723   2.290246   2.836272
    45  H    2.846831   5.999238   7.091705   3.059745   3.544175
                   36         37         38         39         40
    36  H    0.000000
    37  H    1.779745   0.000000
    38  H    7.567346   8.263128   0.000000
    39  H    6.145887   6.309405   3.873251   0.000000
    40  H    5.286720   5.149560   7.474472   3.933340   0.000000
    41  H    4.050678   3.519962   8.339710   5.108960   2.026182
    42  H    9.790595  10.161145   3.409956   6.357557  10.159750
    43  H    9.168933   9.426980   4.722860   7.237120  10.630318
    44  H    7.215245   6.639263   6.804804   6.825821   8.953215
    45  H    2.292765   2.844855   6.538085   6.018033   6.530427
                   41         42         43         44         45
    41  H    0.000000
    42  H   10.797332   0.000000
    43  H   10.817948   2.417436   0.000000
    44  H    8.471545   6.105157   4.571129   0.000000
    45  H    5.578814   8.141248   7.156829   5.318756   0.000000
 Stoichiometry    C12H22O11
 Framework group  C1[X(C12H22O11)]
 Deg. of freedom   129
 Full point group                 C1      NOp   1
 Largest Abelian subgroup         C1      NOp   1
 Largest concise Abelian subgroup C1      NOp   1
                         Standard orientation:                         
 ---------------------------------------------------------------------
 Center     Atomic      Atomic             Coordinates (Angstroms)
 Number     Number       Type             X           Y           Z
 ---------------------------------------------------------------------
      1          8           0       -0.131559   -0.386406   -0.387687
      2          8           0       -1.672986    0.303553    1.276127
      3          8           0        3.114184    1.308573   -0.308449
      4          8           0        1.521805   -2.178638    1.164595
      5          8           0       -1.378044   -2.897845   -0.504568
      6          8           0       -4.143520   -2.159766   -0.932784
      7          8           0       -4.496072    0.688123   -1.062881
      8          8           0        4.305918   -2.107200    0.203049
      9          8           0        5.292304    0.538676    0.018751
     10          8           0        1.642420    3.280244   -1.534326
     11          8           0       -2.070948    2.983646    1.609745
     12          6           0        1.157052   -0.054991    0.122915
     13          6           0        2.028656   -1.310722    0.149711
     14          6           0       -1.012425   -0.800878    0.654776
     15          6           0        1.788087    1.025482   -0.758614
     16          6           0       -2.032976   -1.838279    0.183741
     17          6           0       -3.088071   -1.217281   -0.729656
     18          6           0       -3.682822    0.038228   -0.088826
     19          6           0        3.486369   -0.966243    0.455706
     20          6           0       -2.580232    0.985798    0.402816
     21          6           0        3.982029    0.183263   -0.421713
     22          6           0        0.996979    2.328696   -0.707930
     23          6           0       -3.146952    2.167940    1.184448
     24          1           0        1.070141    0.345331    1.144230
     25          1           0        1.944752   -1.857504   -0.797578
     26          1           0       -0.459535   -1.279403    1.464132
     27          1           0        1.836512    0.697600   -1.805909
     28          1           0       -2.537992   -2.277975    1.052803
     29          1           0       -2.666753   -0.998579   -1.718595
     30          1           0       -4.331356   -0.248296    0.749160
     31          1           0       -2.018911    1.386082   -0.449143
     32          1           0        3.589649   -0.725796    1.521297
     33          1           0        4.070443   -0.114713   -1.472874
     34          1           0        0.954660    2.737127    0.307070
     35          1           0       -0.020326    2.197349   -1.081318
     36          1           0       -3.687368    1.835450    2.076789
     37          1           0       -3.819759    2.772411    0.569450
     38          1           0        2.096696   -2.962631    1.189238
     39          1           0       -0.881755   -2.508242   -1.244778
     40          1           0       -4.732868   -1.799833   -1.616592
     41          1           0       -5.263991    0.118048   -1.235730
     42          1           0        5.224371   -1.856219    0.401011
     43          1           0        5.316347    0.486871    0.988772
     44          1           0        2.549034    3.392570   -1.200774
     45          1           0       -1.474165    2.430583    2.142520
 ---------------------------------------------------------------------
 Rotational constants (GHZ):           0.3920575           0.1584420           0.1272382
 Standard basis: 6-311++G(d,p) (5D, 7F)
 There are   683 symmetry adapted cartesian basis functions of A   symmetry.
 There are   660 symmetry adapted basis functions of A   symmetry.
   660 basis functions,  1026 primitive gaussians,   683 cartesian basis functions
    91 alpha electrons       91 beta electrons
       nuclear repulsion energy      2319.6368055290 Hartrees.
 NAtoms=   45 NActive=   45 NUniq=   45 SFac= 1.00D+00 NAtFMM=   60 NAOKFM=F Big=F
 Integral buffers will be    131072 words long.
 Raffenetti 2 integral format.
 Two-electron integral symmetry is turned on.
 R6APFD:  NTU= -4 IXU= 1 FactS= 1.050
 Nuclear repulsion after empirical dispersion term =     2319.5817206165 Hartrees.
 One-electron integrals computed using PRISM.
 NBasis=   660 RedAO= T EigKep=  2.25D-06  NBF=   660
 NBsUse=   660 1.00D-06 EigRej= -1.00D+00 NBFU=   660
 ExpMin= 3.60D-02 ExpMax= 8.59D+03 ExpMxC= 1.30D+03 IAcc=3 IRadAn=         5 AccDes= 0.00D+00
 Harris functional with IExCor= 1009 and IRadAn=       5 diagonalized for initial guess.
 HarFok:  IExCor= 1009 AccDes= 0.00D+00 IRadAn=         5 IDoV= 1 UseB2=F ITyADJ=14
 ICtDFT=  3500011 ScaDFX=  1.000000  1.000000  1.000000  1.000000
 FoFCou: FMM=F IPFlag=           0 FMFlag=      100000 FMFlg1=           0
         NFxFlg=           0 DoJE=T BraDBF=F KetDBF=T FulRan=T
         wScrn=  0.000000 ICntrl=       500 IOpCl=  0 I1Cent=   200000004 NGrid=           0
         NMat0=    1 NMatS0=      1 NMatT0=    0 NMatD0=    1 NMtDS0=    0 NMtDT0=    0
 Petite list used in FoFCou.
 Requested convergence on RMS density matrix=1.00D-08 within  32 cycles.
 Requested convergence on MAX density matrix=1.00D-06.
 Requested convergence on             energy=1.00D-06.
 No special actions if energy rises.
 SCF Done:  E(RM08HX) =  -1297.93765131     A.U. after   14 cycles
            NFock= 14  Conv=0.39D-08     -V/T= 2.0041
 QCSCF skips out because SCF is already converged.

 **********************************************************************

            Population analysis using the SCF Density.

 **********************************************************************

 Orbital symmetries:
       Occupied  (A) (A) (A) (A) (A) (A) (A) (A) (A) (A) (A) (A)
                 (A) (A) (A) (A) (A) (A) (A) (A) (A) (A) (A) (A)
                 (A) (A) (A) (A) (A) (A) (A) (A) (A) (A) (A) (A)
                 (A) (A) (A) (A) (A) (A) (A) (A) (A) (A) (A) (A)
                 (A) (A) (A) (A) (A) (A) (A) (A) (A) (A) (A) (A)
                 (A) (A) (A) (A) (A) (A) (A) (A) (A) (A) (A) (A)
                 (A) (A) (A) (A) (A) (A) (A) (A) (A) (A) (A) (A)
                 (A) (A) (A) (A) (A) (A) (A)
       Virtual   (A) (A) (A) (A) (A) (A) (A) (A) (A) (A) (A) (A)
                 (A) (A) (A) (A) (A) (A) (A) (A) (A) (A) (A) (A)
                 (A) (A) (A) (A) (A) (A) (A) (A) (A) (A) (A) (A)
                 (A) (A) (A) (A) (A) (A) (A) (A) (A) (A) (A) (A)
                 (A) (A) (A) (A) (A) (A) (A) (A) (A) (A) (A) (A)
                 (A) (A) (A) (A) (A) (A) (A) (A) (A) (A) (A) (A)
                 (A) (A) (A) (A) (A) (A) (A) (A) (A) (A) (A) (A)
                 (A) (A) (A) (A) (A) (A) (A) (A) (A) (A) (A) (A)
                 (A) (A) (A) (A) (A) (A) (A) (A) (A) (A) (A) (A)
                 (A) (A) (A) (A) (A) (A) (A) (A) (A) (A) (A) (A)
                 (A) (A) (A) (A) (A) (A) (A) (A) (A) (A) (A) (A)
                 (A) (A) (A) (A) (A) (A) (A) (A) (A) (A) (A) (A)
                 (A) (A) (A) (A) (A) (A) (A) (A) (A) (A) (A) (A)
                 (A) (A) (A) (A) (A) (A) (A) (A) (A) (A) (A) (A)
                 (A) (A) (A) (A) (A) (A) (A) (A) (A) (A) (A) (A)
                 (A) (A) (A) (A) (A) (A) (A) (A) (A) (A) (A) (A)
                 (A) (A) (A) (A) (A) (A) (A) (A) (A) (A) (A) (A)
                 (A) (A) (A) (A) (A) (A) (A) (A) (A) (A) (A) (A)
                 (A) (A) (A) (A) (A) (A) (A) (A) (A) (A) (A) (A)
                 (A) (A) (A) (A) (A) (A) (A) (A) (A) (A) (A) (A)
                 (A) (A) (A) (A) (A) (A) (A) (A) (A) (A) (A) (A)
                 (A) (A) (A) (A) (A) (A) (A) (A) (A) (A) (A) (A)
                 (A) (A) (A) (A) (A) (A) (A) (A) (A) (A) (A) (A)
                 (A) (A) (A) (A) (A) (A) (A) (A) (A) (A) (A) (A)
                 (A) (A) (A) (A) (A) (A) (A) (A) (A) (A) (A) (A)
                 (A) (A) (A) (A) (A) (A) (A) (A) (A) (A) (A) (A)
                 (A) (A) (A) (A) (A) (A) (A) (A) (A) (A) (A) (A)
                 (A) (A) (A) (A) (A) (A) (A) (A) (A) (A) (A) (A)
                 (A) (A) (A) (A) (A) (A) (A) (A) (A) (A) (A) (A)
                 (A) (A) (A) (A) (A) (A) (A) (A) (A) (A) (A) (A)
                 (A) (A) (A) (A) (A) (A) (A) (A) (A) (A) (A) (A)
                 (A) (A) (A) (A) (A) (A) (A) (A) (A) (A) (A) (A)
                 (A) (A) (A) (A) (A) (A) (A) (A) (A) (A) (A) (A)
                 (A) (A) (A) (A) (A) (A) (A) (A) (A) (A) (A) (A)
                 (A) (A) (A) (A) (A) (A) (A) (A) (A) (A) (A) (A)
                 (A) (A) (A) (A) (A) (A) (A) (A) (A) (A) (A) (A)
                 (A) (A) (A) (A) (A) (A) (A) (A) (A) (A) (A) (A)
                 (A) (A) (A) (A) (A) (A) (A) (A) (A) (A) (A) (A)
                 (A) (A) (A) (A) (A) (A) (A) (A) (A) (A) (A) (A)
                 (A) (A) (A) (A) (A) (A) (A) (A) (A) (A) (A) (A)
                 (A) (A) (A) (A) (A) (A) (A) (A) (A) (A) (A) (A)
                 (A) (A) (A) (A) (A) (A) (A) (A) (A) (A) (A) (A)
                 (A) (A) (A) (A) (A) (A) (A) (A) (A) (A) (A) (A)
                 (A) (A) (A) (A) (A) (A) (A) (A) (A) (A) (A) (A)
                 (A) (A) (A) (A) (A) (A) (A) (A) (A) (A) (A) (A)
                 (A) (A) (A) (A) (A) (A) (A) (A) (A) (A) (A) (A)
                 (A) (A) (A) (A) (A) (A) (A) (A) (A) (A) (A) (A)
                 (A) (A) (A) (A) (A)
 The electronic state is 1-A.
 Alpha  occ. eigenvalues --  -19.65617 -19.65155 -19.65071 -19.64683 -19.64455
 Alpha  occ. eigenvalues --  -19.63626 -19.63285 -19.62911 -19.61654 -19.60795
 Alpha  occ. eigenvalues --  -19.60789 -10.66574 -10.65069 -10.61841 -10.61748
 Alpha  occ. eigenvalues --  -10.61419 -10.61006 -10.60227 -10.60186 -10.59972
 Alpha  occ. eigenvalues --  -10.59823 -10.58441 -10.58102  -1.22899  -1.22209
 Alpha  occ. eigenvalues --   -1.18421  -1.18230  -1.17232  -1.16166  -1.15571
 Alpha  occ. eigenvalues --   -1.15380  -1.14169  -1.13831  -1.13774  -0.92820
 Alpha  occ. eigenvalues --   -0.90479  -0.89834  -0.88184  -0.80805  -0.79700
 Alpha  occ. eigenvalues --   -0.77183  -0.75216  -0.73307  -0.72318  -0.70907
 Alpha  occ. eigenvalues --   -0.68661  -0.65398  -0.65006  -0.63859  -0.62745
 Alpha  occ. eigenvalues --   -0.62188  -0.61642  -0.60944  -0.60564  -0.59385
 Alpha  occ. eigenvalues --   -0.58557  -0.57896  -0.56797  -0.55495  -0.54874
 Alpha  occ. eigenvalues --   -0.54605  -0.53534  -0.52852  -0.51915  -0.51070
 Alpha  occ. eigenvalues --   -0.50648  -0.49794  -0.49386  -0.48808  -0.47858
 Alpha  occ. eigenvalues --   -0.46994  -0.46352  -0.46052  -0.45556  -0.44861
 Alpha  occ. eigenvalues --   -0.43812  -0.42871  -0.42535  -0.41541  -0.41417
 Alpha  occ. eigenvalues --   -0.40753  -0.39799  -0.39586  -0.38800  -0.38487
 Alpha  occ. eigenvalues --   -0.37685  -0.36299  -0.35993  -0.35504  -0.34992
 Alpha  occ. eigenvalues --   -0.34315
 Alpha virt. eigenvalues --   -0.04546  -0.04136  -0.03260  -0.02490  -0.02266
 Alpha virt. eigenvalues --   -0.01688  -0.00605  -0.00417  -0.00197   0.00211
 Alpha virt. eigenvalues --    0.00369   0.01423   0.01547   0.02178   0.02684
 Alpha virt. eigenvalues --    0.03098   0.03454   0.03859   0.04498   0.04699
 Alpha virt. eigenvalues --    0.04977   0.05750   0.06285   0.06833   0.07070
 Alpha virt. eigenvalues --    0.07261   0.07490   0.07892   0.08088   0.08415
 Alpha virt. eigenvalues --    0.08727   0.08986   0.09558   0.09760   0.09865
 Alpha virt. eigenvalues --    0.10207   0.10286   0.10508   0.10879   0.11045
 Alpha virt. eigenvalues --    0.11300   0.11379   0.11667   0.12302   0.12590
 Alpha virt. eigenvalues --    0.12819   0.13010   0.13218   0.13471   0.13877
 Alpha virt. eigenvalues --    0.14142   0.14450   0.14613   0.14828   0.15097
 Alpha virt. eigenvalues --    0.15391   0.15533   0.15798   0.16126   0.16308
 Alpha virt. eigenvalues --    0.16845   0.17148   0.17562   0.17983   0.18097
 Alpha virt. eigenvalues --    0.18352   0.18598   0.19042   0.19445   0.19639
 Alpha virt. eigenvalues --    0.20072   0.20187   0.20666   0.21058   0.21591
 Alpha virt. eigenvalues --    0.22089   0.22150   0.22421   0.22911   0.23073
 Alpha virt. eigenvalues --    0.23235   0.23692   0.23912   0.24093   0.24489
 Alpha virt. eigenvalues --    0.24966   0.25215   0.25573   0.26044   0.26503
 Alpha virt. eigenvalues --    0.26715   0.26848   0.26974   0.27498   0.27646
 Alpha virt. eigenvalues --    0.27929   0.28188   0.28479   0.28856   0.29339
 Alpha virt. eigenvalues --    0.29851   0.30027   0.30218   0.30473   0.30986
 Alpha virt. eigenvalues --    0.31092   0.31298   0.31393   0.31684   0.31865
 Alpha virt. eigenvalues --    0.32052   0.32630   0.32736   0.33057   0.33364
 Alpha virt. eigenvalues --    0.33422   0.33589   0.33972   0.34349   0.34627
 Alpha virt. eigenvalues --    0.34915   0.35055   0.35153   0.35637   0.35787
 Alpha virt. eigenvalues --    0.36319   0.36654   0.36789   0.37057   0.37349
 Alpha virt. eigenvalues --    0.37595   0.37808   0.38380   0.38921   0.39115
 Alpha virt. eigenvalues --    0.39645   0.39887   0.39945   0.40332   0.40673
 Alpha virt. eigenvalues --    0.40821   0.41108   0.41633   0.42529   0.43078
 Alpha virt. eigenvalues --    0.43366   0.43613   0.44351   0.44679   0.44951
 Alpha virt. eigenvalues --    0.45281   0.45875   0.46795   0.47331   0.48080
 Alpha virt. eigenvalues --    0.48289   0.48706   0.49613   0.51298   0.51943
 Alpha virt. eigenvalues --    0.53913   0.54188   0.55046   0.55579   0.56645
 Alpha virt. eigenvalues --    0.57394   0.57856   0.58648   0.59054   0.60261
 Alpha virt. eigenvalues --    0.60771   0.60962   0.61267   0.61688   0.63158
 Alpha virt. eigenvalues --    0.63207   0.64134   0.64844   0.66605   0.67074
 Alpha virt. eigenvalues --    0.67407   0.68072   0.68305   0.68518   0.69301
 Alpha virt. eigenvalues --    0.70304   0.70491   0.71254   0.72461   0.72955
 Alpha virt. eigenvalues --    0.73470   0.73969   0.74217   0.74550   0.75516
 Alpha virt. eigenvalues --    0.75977   0.76397   0.76872   0.77182   0.77936
 Alpha virt. eigenvalues --    0.78369   0.78539   0.79359   0.79997   0.80384
 Alpha virt. eigenvalues --    0.80848   0.81186   0.81585   0.82638   0.83135
 Alpha virt. eigenvalues --    0.83825   0.84667   0.86720   0.87694   0.91454
 Alpha virt. eigenvalues --    0.93044   0.96182   0.97554   0.98423   0.98626
 Alpha virt. eigenvalues --    1.00851   1.01903   1.03475   1.04162   1.04732
 Alpha virt. eigenvalues --    1.06060   1.06729   1.07950   1.08911   1.11219
 Alpha virt. eigenvalues --    1.11921   1.12627   1.13223   1.14539   1.14849
 Alpha virt. eigenvalues --    1.16262   1.17349   1.17782   1.18127   1.18582
 Alpha virt. eigenvalues --    1.19242   1.19881   1.20248   1.20719   1.21588
 Alpha virt. eigenvalues --    1.22127   1.22220   1.23027   1.24011   1.24204
 Alpha virt. eigenvalues --    1.25330   1.25616   1.25838   1.26466   1.26965
 Alpha virt. eigenvalues --    1.27926   1.28924   1.29890   1.30651   1.31514
 Alpha virt. eigenvalues --    1.32184   1.32697   1.33489   1.34604   1.35482
 Alpha virt. eigenvalues --    1.36018   1.36783   1.37678   1.38912   1.40224
 Alpha virt. eigenvalues --    1.40977   1.42203   1.42631   1.43569   1.44486
 Alpha virt. eigenvalues --    1.46118   1.47285   1.47767   1.48815   1.49667
 Alpha virt. eigenvalues --    1.50628   1.50968   1.51091   1.52033   1.52720
 Alpha virt. eigenvalues --    1.53644   1.53939   1.55655   1.56890   1.57096
 Alpha virt. eigenvalues --    1.57349   1.58389   1.59255   1.59827   1.60189
 Alpha virt. eigenvalues --    1.60260   1.61294   1.61801   1.63003   1.63147
 Alpha virt. eigenvalues --    1.63597   1.64177   1.64551   1.65069   1.65267
 Alpha virt. eigenvalues --    1.66488   1.67086   1.67826   1.68358   1.69359
 Alpha virt. eigenvalues --    1.69994   1.70809   1.71242   1.71532   1.72023
 Alpha virt. eigenvalues --    1.73474   1.74267   1.75488   1.75917   1.77525
 Alpha virt. eigenvalues --    1.78146   1.78739   1.79151   1.80019   1.80890
 Alpha virt. eigenvalues --    1.81772   1.82115   1.83379   1.84100   1.85210
 Alpha virt. eigenvalues --    1.85636   1.86446   1.87310   1.88927   1.89227
 Alpha virt. eigenvalues --    1.90796   1.90890   1.92605   1.92946   1.94385
 Alpha virt. eigenvalues --    1.95039   1.96965   1.97479   1.98529   1.99412
 Alpha virt. eigenvalues --    2.00040   2.00633   2.01552   2.03921   2.04673
 Alpha virt. eigenvalues --    2.05561   2.07336   2.07464   2.09941   2.10355
 Alpha virt. eigenvalues --    2.11037   2.11853   2.12088   2.14125   2.14507
 Alpha virt. eigenvalues --    2.14643   2.15276   2.16783   2.16895   2.17851
 Alpha virt. eigenvalues --    2.18628   2.18938   2.20298   2.21757   2.22563
 Alpha virt. eigenvalues --    2.24133   2.24869   2.25846   2.26525   2.27605
 Alpha virt. eigenvalues --    2.28736   2.29852   2.30706   2.32627   2.34510
 Alpha virt. eigenvalues --    2.35498   2.36954   2.38376   2.39361   2.41608
 Alpha virt. eigenvalues --    2.42424   2.52475   2.53504   2.54223   2.55601
 Alpha virt. eigenvalues --    2.55947   2.57595   2.58296   2.59589   2.60472
 Alpha virt. eigenvalues --    2.61231   2.62195   2.62734   2.63866   2.66248
 Alpha virt. eigenvalues --    2.66546   2.67793   2.68534   2.70499   2.72495
 Alpha virt. eigenvalues --    2.73457   2.73699   2.74224   2.75359   2.77185
 Alpha virt. eigenvalues --    2.79676   2.81738   2.82472   2.83651   2.83784
 Alpha virt. eigenvalues --    2.84590   2.87446   2.88873   2.89973   2.93683
 Alpha virt. eigenvalues --    2.94031   2.95371   2.96883   2.98109   2.98725
 Alpha virt. eigenvalues --    2.99313   2.99900   3.01489   3.02554   3.02908
 Alpha virt. eigenvalues --    3.04222   3.05506   3.07507   3.07919   3.08588
 Alpha virt. eigenvalues --    3.09621   3.11387   3.12409   3.13421   3.13611
 Alpha virt. eigenvalues --    3.15411   3.16672   3.17125   3.18290   3.19034
 Alpha virt. eigenvalues --    3.19687   3.20521   3.21392   3.21882   3.22138
 Alpha virt. eigenvalues --    3.23082   3.23525   3.24389   3.24543   3.25550
 Alpha virt. eigenvalues --    3.26068   3.26214   3.28360   3.30205   3.30966
 Alpha virt. eigenvalues --    3.32564   3.33602   3.35389   3.36452   3.37051
 Alpha virt. eigenvalues --    3.38855   3.39015   3.39905   3.40758   3.41082
 Alpha virt. eigenvalues --    3.42723   3.44510   3.45412   3.47457   3.47956
 Alpha virt. eigenvalues --    3.56190   3.57364   3.61641   3.62858   3.82075
 Alpha virt. eigenvalues --    3.83372   3.85755   3.89684   3.91729   3.92322
 Alpha virt. eigenvalues --    3.93339   3.93918   3.95295   3.95603   3.96712
 Alpha virt. eigenvalues --    3.97691   3.98539   4.01104   4.02134   4.03963
 Alpha virt. eigenvalues --    4.04831   4.07259   4.09300   4.10682   4.12202
 Alpha virt. eigenvalues --    4.13607   4.16272   4.22742   4.23759   4.26006
 Alpha virt. eigenvalues --    4.27913   4.28760   4.31024   4.31335   4.37264
 Alpha virt. eigenvalues --    4.39512   4.41060   4.41818   5.20372   5.21344
 Alpha virt. eigenvalues --    5.22643   5.24559   5.25674   5.26050   5.26995
 Alpha virt. eigenvalues --    5.28299   5.32670   5.33631   5.36084   5.43818
 Alpha virt. eigenvalues --    5.47889   5.51911   5.52059   5.54011   5.54444
 Alpha virt. eigenvalues --    5.55271   5.55925   5.57390   5.58443   5.59991
 Alpha virt. eigenvalues --    5.66162   5.70032   5.71141   5.72825   5.74372
 Alpha virt. eigenvalues --    5.74958   5.75538   5.77181   5.80979   5.86071
 Alpha virt. eigenvalues --    5.91954  23.78662  23.81599  23.83615  23.84272
 Alpha virt. eigenvalues --   23.85696  23.87838  23.88908  23.89623  23.90480
 Alpha virt. eigenvalues --   23.91397  23.93613  23.95739  49.91443  49.93224
 Alpha virt. eigenvalues --   49.93750  49.95391  49.96140  49.96535  49.97135
 Alpha virt. eigenvalues --   49.98261  49.99108  50.00191  50.03211
          Condensed to atoms (all electrons):
               1          2          3          4          5          6
     1  O    8.125620  -0.015487   0.015435  -0.022946   0.018850  -0.008331
     2  O   -0.015487   8.101601  -0.000657   0.013367   0.042639  -0.011835
     3  O    0.015435  -0.000657   8.015305  -0.010658   0.000081   0.000001
     4  O   -0.022946   0.013367  -0.010658   8.064072   0.011402   0.000035
     5  O    0.018850   0.042639   0.000081   0.011402   7.773314   0.016963
     6  O   -0.008331  -0.011835   0.000001   0.000035   0.016963   7.847217
     7  O   -0.003601   0.003529   0.000005  -0.000013   0.000782  -0.013837
     8  O   -0.000383   0.000021   0.006783   0.005342  -0.000053  -0.000000
     9  O    0.000930  -0.000082   0.005261  -0.001727  -0.000009  -0.000000
    10  O   -0.003420   0.000363  -0.012549   0.000412   0.000010   0.000000
    11  O   -0.009917  -0.010784   0.000230   0.000072   0.000095   0.000180
    12  C    0.090719   0.450527  -0.252530   0.186815  -0.052405  -0.006759
    13  C   -0.336689  -0.031595  -0.019248  -0.130647   0.113405   0.004548
    14  C   -0.447200  -0.838537  -0.002440   0.007045  -0.120650   0.144715
    15  C   -0.036530   0.064559   0.487018   0.158666   0.051585   0.002270
    16  C   -0.033202  -0.221329   0.001103  -0.139289   0.217786  -0.387429
    17  C    0.390775   0.291725  -0.001550   0.032133  -0.269496   0.634642
    18  C   -0.158388  -0.143542   0.001542  -0.002466  -0.038559  -0.380728
    19  C    0.047675   0.046825   0.046172  -0.169250   0.055957   0.000611
    20  C    0.066382   0.218643   0.012920   0.019551   0.120841   0.130502
    21  C    0.019043   0.001468  -0.048299   0.056788   0.000347  -0.000056
    22  C    0.059271   0.000183  -0.141712  -0.006562  -0.001163  -0.000467
    23  C    0.079131   0.040497  -0.002277  -0.000001   0.001800  -0.015967
    24  H    0.001374   0.002466  -0.008782  -0.030065   0.004667  -0.000378
    25  H   -0.009517  -0.007981   0.004096  -0.054455  -0.016200  -0.000264
    26  H   -0.050886  -0.129299  -0.001805  -0.013699  -0.005299   0.003399
    27  H   -0.025781   0.002887  -0.055902   0.001107   0.002034   0.000352
    28  H    0.017901   0.004795   0.000321  -0.005101  -0.098784  -0.026103
    29  H    0.015535   0.003016  -0.000533  -0.000921  -0.035767  -0.024305
    30  H   -0.004364   0.005797  -0.000136   0.000252  -0.003298  -0.020688
    31  H   -0.025124  -0.061937   0.001863   0.000620   0.017417   0.009996
    32  H   -0.005284   0.000188   0.018175  -0.026190  -0.000665  -0.000012
    33  H    0.004707  -0.000252  -0.082304  -0.007173  -0.000433  -0.000017
    34  H   -0.038063   0.007340  -0.039655   0.001360  -0.000555   0.000042
    35  H    0.068620  -0.018250   0.044708  -0.000600  -0.003988  -0.001821
    36  H   -0.003905  -0.046397   0.000269  -0.000246  -0.000170   0.001238
    37  H    0.003882   0.032753  -0.000231   0.000134  -0.000193  -0.000979
    38  H    0.001483   0.001481   0.000258   0.155012   0.000946   0.000018
    39  H    0.030502   0.006284   0.000572   0.007112   0.222252   0.007523
    40  H    0.000632   0.002304  -0.000006   0.000167  -0.000684   0.222854
    41  H   -0.000458  -0.002047   0.000007  -0.000030   0.000336  -0.002048
    42  H   -0.000270   0.000089  -0.002199   0.004365   0.000038   0.000000
    43  H    0.000438   0.000001  -0.015601   0.000830   0.000027   0.000001
    44  H    0.002384  -0.000649   0.038049   0.000256   0.000021  -0.000003
    45  H   -0.002165   0.024246   0.000037   0.000034   0.000509   0.000158
               7          8          9         10         11         12
     1  O   -0.003601  -0.000383   0.000930  -0.003420  -0.009917   0.090719
     2  O    0.003529   0.000021  -0.000082   0.000363  -0.010784   0.450527
     3  O    0.000005   0.006783   0.005261  -0.012549   0.000230  -0.252530
     4  O   -0.000013   0.005342  -0.001727   0.000412   0.000072   0.186815
     5  O    0.000782  -0.000053  -0.000009   0.000010   0.000095  -0.052405
     6  O   -0.013837  -0.000000  -0.000000   0.000000   0.000180  -0.006759
     7  O    7.892909  -0.000000   0.000000  -0.000012  -0.001386  -0.008657
     8  O   -0.000000   7.949549  -0.024550   0.000114  -0.000001   0.294015
     9  O    0.000000  -0.024550   7.878234   0.001698   0.000002   0.055775
    10  O   -0.000012   0.000114   0.001698   7.801377   0.000173   0.170466
    11  O   -0.001386  -0.000001   0.000002   0.000173   7.856918   0.035458
    12  C   -0.008657   0.294015   0.055775   0.170466   0.035458  41.367482
    13  C    0.001027  -0.435600  -0.046558  -0.001313   0.009715 -12.977514
    14  C    0.109836   0.007347   0.004535  -0.014550  -0.010764  -9.385495
    15  C    0.007253   0.010403   0.032610  -0.313535  -0.021498 -14.237761
    16  C   -0.005816  -0.003700  -0.000160   0.000480  -0.014489   1.326195
    17  C   -0.330710   0.000726  -0.000100  -0.001627  -0.010898   0.140082
    18  C    0.319569   0.000040   0.000037   0.003099   0.022099  -0.027983
    19  C    0.000342   0.218574   0.095821   0.009330  -0.000864  -5.013318
    20  C   -0.075214  -0.000244  -0.000734   0.000415  -0.005383   0.589570
    21  C   -0.000031  -0.069303   0.054942  -0.003615   0.000538   3.149342
    22  C   -0.000711   0.015645   0.002950   0.438184   0.023125  -0.001586
    23  C    0.090550  -0.000090  -0.000035  -0.000434   0.157699   0.595372
    24  H    0.000871  -0.013092  -0.003293  -0.004013  -0.004739  -0.003777
    25  H   -0.000366  -0.045682   0.004478   0.000567   0.000026  -0.393676
    26  H    0.004525   0.003676   0.000759   0.000413   0.005005   0.376466
    27  H    0.000720   0.002889   0.003445   0.014923  -0.000843  -0.563937
    28  H   -0.011727   0.000006   0.000003  -0.000027  -0.000261  -0.029866
    29  H   -0.041744   0.000022  -0.000002   0.000283   0.001016   0.052006
    30  H   -0.032885   0.000003   0.000001   0.000029  -0.002903   0.000052
    31  H   -0.012859  -0.000056   0.000074  -0.000646   0.006146  -0.468034
    32  H   -0.000023  -0.031401  -0.038447  -0.001485  -0.000150  -0.170342
    33  H   -0.000013   0.002285  -0.112232  -0.002157   0.000007   0.185639
    34  H   -0.000873  -0.000022   0.005691   0.000952   0.006302   0.259443
    35  H   -0.004472   0.000047  -0.002685  -0.188033   0.001204   0.578460
    36  H   -0.013041  -0.000004  -0.000002   0.000032  -0.038007  -0.005333
    37  H    0.037580   0.000001   0.000000   0.000154  -0.092256   0.018959
    38  H    0.000015   0.000122   0.000396   0.000086   0.000027  -0.285532
    39  H    0.001640   0.000226  -0.000159  -0.000235  -0.000144  -0.087883
    40  H   -0.002528   0.000002  -0.000000  -0.000003  -0.000002  -0.003349
    41  H    0.201947  -0.000000  -0.000000   0.000004   0.000030  -0.001439
    42  H   -0.000000   0.213656   0.035597   0.000241   0.000000  -0.021363
    43  H    0.000001  -0.016552   0.245195   0.000543  -0.000010  -0.032297
    44  H   -0.000012   0.000100  -0.000017   0.218933   0.000502   0.094879
    45  H    0.000810   0.000010  -0.000064   0.000399   0.228995  -0.015737
              13         14         15         16         17         18
     1  O   -0.336689  -0.447200  -0.036530  -0.033202   0.390775  -0.158388
     2  O   -0.031595  -0.838537   0.064559  -0.221329   0.291725  -0.143542
     3  O   -0.019248  -0.002440   0.487018   0.001103  -0.001550   0.001542
     4  O   -0.130647   0.007045   0.158666  -0.139289   0.032133  -0.002466
     5  O    0.113405  -0.120650   0.051585   0.217786  -0.269496  -0.038559
     6  O    0.004548   0.144715   0.002270  -0.387429   0.634642  -0.380728
     7  O    0.001027   0.109836   0.007253  -0.005816  -0.330710   0.319569
     8  O   -0.435600   0.007347   0.010403  -0.003700   0.000726   0.000040
     9  O   -0.046558   0.004535   0.032610  -0.000160  -0.000100   0.000037
    10  O   -0.001313  -0.014550  -0.313535   0.000480  -0.001627   0.003099
    11  O    0.009715  -0.010764  -0.021498  -0.014489  -0.010898   0.022099
    12  C  -12.977514  -9.385495 -14.237761   1.326195   0.140082  -0.027983
    13  C   29.874125   2.333290  -3.693017   0.350373   0.165999  -0.073098
    14  C    2.333290  31.918853  -1.538066 -10.106912  -1.586615   2.309367
    15  C   -3.693017  -1.538066  26.593679  -1.650134   0.388005  -0.442650
    16  C    0.350373 -10.106912  -1.650134  25.440397  -8.126539  -0.209345
    17  C    0.165999  -1.586615   0.388005  -8.126539  16.966402  -4.167421
    18  C   -0.073098   2.309367  -0.442650  -0.209345  -4.167421  16.933027
    19  C  -10.029158  -0.881540   6.095386  -0.617759   0.136020  -0.067509
    20  C   -0.238185  -3.557976   0.491994   0.118260   1.321740  -7.067817
    21  C    1.260992   0.063908  -3.997032   0.016007   0.005643   0.007386
    22  C   -1.800268   0.066165  -1.719355  -0.198847   0.045903  -0.121235
    23  C   -0.072398  -1.970231   0.013535   0.972327  -0.383805  -0.070817
    24  H    0.590495  -0.147049  -0.218621   0.009827   0.039631  -0.025063
    25  H    1.078453   0.082115  -0.362886   0.147482  -0.032152   0.026637
    26  H   -0.329035   1.003658  -0.048825  -0.249866  -0.294135   0.092980
    27  H    0.034494  -0.116794   1.104962   0.032037  -0.021034  -0.013287
    28  H    0.023173  -0.472835  -0.022590   0.852274  -0.042136  -0.006767
    29  H    0.039645  -0.240417  -0.052014  -0.188232   0.886735  -0.303772
    30  H   -0.008106   0.176977  -0.005532  -0.182165   0.074974   0.528381
    31  H   -0.012310   0.115589   0.489325  -0.397010   0.218249  -0.793209
    32  H    0.225941   0.005497   0.002539   0.022071   0.002432   0.000664
    33  H    0.334302   0.024106  -0.305074   0.005484   0.001559  -0.000136
    34  H    0.150310   0.016856   0.013082   0.026756   0.010373   0.006806
    35  H   -0.065960   0.141110  -0.786631   0.093545  -0.075142   0.203969
    36  H    0.008337  -0.055807  -0.016472  -0.077942   0.103801  -0.006613
    37  H   -0.000088  -0.012367  -0.002692   0.073517  -0.094228   0.072559
    38  H    0.197148  -0.017800   0.024277   0.003417  -0.001874  -0.003356
    39  H   -0.003565  -0.062237   0.053380  -0.124314   0.129738  -0.025103
    40  H    0.001466  -0.003494   0.000398   0.044964  -0.056986   0.052658
    41  H   -0.000730   0.035235   0.000849   0.012164  -0.056341   0.093347
    42  H   -0.200219  -0.006960   0.018672  -0.001057  -0.000053   0.000011
    43  H   -0.035231  -0.000004  -0.012544  -0.001553   0.000029  -0.000153
    44  H   -0.021769   0.017826  -0.092536  -0.001532  -0.000732   0.000953
    45  H    0.000372   0.073656   0.028367  -0.021140  -0.030128   0.009774
              19         20         21         22         23         24
     1  O    0.047675   0.066382   0.019043   0.059271   0.079131   0.001374
     2  O    0.046825   0.218643   0.001468   0.000183   0.040497   0.002466
     3  O    0.046172   0.012920  -0.048299  -0.141712  -0.002277  -0.008782
     4  O   -0.169250   0.019551   0.056788  -0.006562  -0.000001  -0.030065
     5  O    0.055957   0.120841   0.000347  -0.001163   0.001800   0.004667
     6  O    0.000611   0.130502  -0.000056  -0.000467  -0.015967  -0.000378
     7  O    0.000342  -0.075214  -0.000031  -0.000711   0.090550   0.000871
     8  O    0.218574  -0.000244  -0.069303   0.015645  -0.000090  -0.013092
     9  O    0.095821  -0.000734   0.054942   0.002950  -0.000035  -0.003293
    10  O    0.009330   0.000415  -0.003615   0.438184  -0.000434  -0.004013
    11  O   -0.000864  -0.005383   0.000538   0.023125   0.157699  -0.004739
    12  C   -5.013318   0.589570   3.149342  -0.001586   0.595372  -0.003777
    13  C  -10.029158  -0.238185   1.260992  -1.800268  -0.072398   0.590495
    14  C   -0.881540  -3.557976   0.063908   0.066165  -1.970231  -0.147049
    15  C    6.095386   0.491994  -3.997032  -1.719355   0.013535  -0.218621
    16  C   -0.617759   0.118260   0.016007  -0.198847   0.972327   0.009827
    17  C    0.136020   1.321740   0.005643   0.045903  -0.383805   0.039631
    18  C   -0.067509  -7.067817   0.007386  -0.121235  -0.070817  -0.025063
    19  C   21.707533   0.092818  -5.461804   0.861719   0.032713  -0.119224
    20  C    0.092818  16.461009   0.024467  -0.177395  -2.777980   0.012821
    21  C   -5.461804   0.024467  11.321522  -0.350513  -0.009857   0.058773
    22  C    0.861719  -0.177395  -0.350513   9.930090  -0.050996  -0.117851
    23  C    0.032713  -2.777980  -0.009857  -0.050996   9.359008   0.054209
[...]
 046672,-0.00123022,-0.00006996,-0.00281490,0.00438575,-0.00100769,-0.0
 0009126,0.00003073,-0.00002292,-0.00042609,-0.00017729,-0.00029607,-0.
 00001402,-0.00005534,-0.00002325,-0.00004604,-0.00000697,-0.00002869,-
 0.00004646,0.00003007,-0.00001696,-0.02703370,-0.01121653,-0.00499076,
 -0.00005556,0.00005550,-0.00000252,0.00207156,0.00008360,-0.00123775,-
 0.00001236,0.00008737,-0.00010003,-0.00009152,-0.00000751,-0.00003021,
 -0.00001822,0.00008392,0.00007650,0.00030342,0.00011333,0.00007976,-0.
 00002511,-0.00002913,0.00000020,0.00003281,0.00004018,0.00000686,0.000
 00439,0.00000070,-0.00000062,0.00000137,0.00000171,-0.00000675,0.00000
 677,0.00000004,-0.00000007,-0.00000003,-0.00000065,-0.00000818,0.00017
 382,-0.00066675,0.00059406,-0.00007550,0.00011301,0.00000868,-0.000009
 20,0.00000313,0.00001027,0.00001856,-0.00001025,0.00002335,0.00002027,
 0.00001254,-0.00000332,0.00000391,-0.00000675,0.00000438,-0.00035264,-
 0.00023947,0.00015001,-0.00003440,-0.00000980,-0.00003916,-0.00001895,
 -0.00000377,-0.00001801,-0.00001798,0.00000802,-0.00000650,0.43747288,
 0.00059956,-0.00024733,0.00039265,0.00001361,-0.00006783,-0.00004908,-
 0.00135715,-0.00049219,-0.00052203,-0.00063463,0.00021379,-0.00023852,
 0.00001512,-0.00002422,-0.00001146,-0.00001016,-0.00001913,-0.00000550
 ,-0.00000638,-0.00001666,0.00000145,-0.22932405,-0.15521441,-0.0218395
 3,-0.00173587,0.00024115,-0.00359358,-0.00005897,-0.00003071,0.0000040
 7,-0.00006746,-0.00002337,-0.00002463,0.00052751,0.00135889,0.00003278
 ,0.00288737,-0.00415692,0.00257365,-0.00009808,-0.00004090,0.00014685,
 0.00029513,0.00041065,-0.00004145,-0.00000326,0.00004014,-0.00000965,0
 .00000712,0.00001382,-0.00000405,0.00000619,0.00000466,0.00000338,0.02
 983641,0.01245578,0.00521772,-0.00000258,0.00003647,-0.00001769,0.0040
 6764,0.00204885,0.00293788,-0.00006776,-0.00003913,-0.00000518,0.00004
 969,0.00001291,0.00002437,-0.00005233,0.00001204,-0.00006490,-0.000048
 10,0.00007915,0.00015895,0.00000692,0.00001475,-0.00000952,-0.00005342
 ,-0.00006424,-0.00001732,0.00000658,0.00000287,0.00000479,-0.00000078,
 0.00000167,0.00000104,-0.00000346,-0.00000269,0.00000120,-0.00000019,0
 .00000682,0.00000473,0.00098402,-0.00059367,-0.00041740,-0.00026156,-0
 .00011756,-0.00033970,0.00001288,-0.00000057,0.00000120,-0.00003872,0.
 00002549,-0.00003595,-0.00001152,-0.00000502,-0.00000091,0.00000247,-0
 .00000167,-0.00000279,0.00070207,-0.00001782,-0.00064290,-0.00000476,0
 .00000176,-0.00000707,0.00000114,0.00000848,-0.00000174,0.00000428,0.0
 0000349,0.00000096,0.19334007,0.14548537,-0.00025847,0.00021201,-0.000
 38024,0.00004952,-0.00003062,-0.00006870,0.00198464,-0.00097249,0.0007
 0841,0.00113009,-0.00017822,0.00014629,0.00002516,-0.00000997,-0.00002
 849,0.00003291,0.00000815,-0.00000746,0.00002571,-0.00000777,-0.000023
 49,-0.04607080,-0.00864006,-0.01531593,0.00122458,-0.00159934,0.000013
 49,0.00015029,-0.00003943,-0.00002404,-0.00006305,-0.00001429,-0.00011
 866,-0.00057726,-0.00076470,0.00064702,-0.00252620,0.00369400,-0.00231
 843,-0.00003308,0.00005727,0.00005511,-0.00088696,-0.00057691,-0.00006
 810,-0.00000350,-0.00000348,0.00002285,-0.00004102,-0.00001381,0.00001
 245,-0.00000297,-0.00000315,0.00000750,-0.01549924,-0.00742633,-0.0030
 6155,-0.00003880,-0.00000774,0.00003353,-0.00488749,0.00054914,-0.0013
 7350,0.00005222,0.00011845,0.00002622,0.00005092,0.00001645,0.00005614
 ,-0.00001535,0.00010222,-0.00005463,0.00024892,0.00013188,0.00010707,-
 0.00000669,-0.00000796,-0.00000019,0.00005735,0.00005666,-0.00002417,0
 .00000604,0.00000257,-0.00000254,0.00000204,0.00000415,-0.00001093,0.0
 0000929,0.00000314,-0.00000505,0.00000157,0.00000137,0.00000017,0.0010
 4338,0.00012591,0.00053608,0.00009918,-0.00003605,-0.00060834,-0.00000
 856,-0.00002841,-0.00001975,0.00005770,-0.00004436,0.00005887,-0.00000
 123,-0.00000024,-0.00001021,-0.00000691,0.00000025,-0.00000014,-0.0007
 5333,-0.00049575,0.00059565,-0.00002487,-0.00000004,0.00001842,-0.0000
 1233,-0.00000587,0.00000342,-0.00001347,0.00000324,0.00000990,0.065173
 65,0.01556329,0.01968131,0.00044378,0.00037498,-0.00016585,0.00014148,
 -0.00000812,-0.00008222,0.00345846,0.00138484,0.00112336,-0.00011696,0
 .00016919,-0.00009787,0.00003821,0.00004673,0.00004365,0.00010425,0.00
 003259,0.00004964,0.00007278,-0.00003611,0.00001301,-0.00057268,0.0008
 6109,-0.00046628,-0.08246375,0.12888864,0.08548036,0.00004554,-0.00012
 807,0.00021694,0.00014637,-0.00001648,-0.00008406,0.00000375,-0.000245
 19,0.00014974,-0.00023815,-0.00015732,0.00042572,-0.00023723,-0.000108
 40,0.00023158,-0.00185696,-0.00039558,-0.00053070,0.00000462,-0.000026
 07,-0.00005665,-0.00008902,-0.00003382,-0.00001685,-0.00004986,0.00003
 441,-0.00001926,0.00083714,-0.00112924,-0.00132919,-0.00008739,-0.0000
 0066,0.00004513,0.00557543,-0.03927466,-0.02342269,0.00008026,0.000225
 58,-0.00006526,-0.00007524,0.00001160,-0.00001036,-0.00007764,0.000039
 30,0.00005657,0.00011659,0.00019076,0.00014123,0.00001364,0.00001542,-
 0.00002663,0.00026337,0.00048811,0.00031718,0.00002120,0.00000895,0.00
 000791,0.00000300,0.00000967,-0.00002275,0.00001621,0.00000269,-0.0000
 0331,-0.00000570,0.00001060,-0.00001656,-0.00036836,0.00040799,0.00116
 378,-0.00432331,-0.00296865,-0.00098179,-0.00011035,0.00004469,-0.0000
 0688,0.00006404,-0.00004362,0.00009291,0.00002623,0.00001279,-0.000010
 70,-0.00000468,-0.00000489,0.00000606,0.00000632,-0.00004750,0.0000150
 9,-0.00003830,-0.00004681,-0.00003758,-0.00002364,-0.00001165,-0.00001
 618,-0.00002695,0.00001000,-0.00000235,0.00023538,0.00039102,0.0003629
 9,0.07912440,0.00049845,0.00006091,0.00008162,0.00016544,-0.00015826,-
 0.00005510,0.00153597,0.00183415,0.00142811,0.00051310,0.00041894,-0.0
 0019888,0.00006513,-0.00000878,0.00003989,0.00007512,-0.00001596,0.000
 04673,0.00005711,-0.00007356,0.00003169,0.00016654,0.00041764,0.000260
 34,0.08528124,-0.34930935,-0.21393775,-0.00008310,-0.00035140,0.000177
 14,0.00004408,-0.00007926,-0.00003464,-0.00039952,0.00008527,-0.000192
 85,-0.00071141,0.00014853,0.00002012,-0.00027359,0.00002034,0.00018222
 ,0.00040196,-0.00029717,0.00021014,-0.00002099,-0.00001663,-0.00003653
 ,-0.00004426,0.00001186,-0.00002769,-0.00004384,0.00004410,-0.00001587
 ,0.00124833,0.00004503,0.00017019,-0.00007373,0.00012574,-0.00001994,0
 .00388878,-0.02274399,-0.01659454,0.00013127,0.00040852,-0.00012845,-0
 .00000858,0.00002085,0.00001155,-0.00001187,0.00001205,0.00001682,0.00
 030234,0.00018498,0.00009386,-0.00002709,-0.00001894,-0.00002143,0.000
 21889,-0.00004746,0.00002234,0.00001461,0.00000422,0.00000661,-0.00000
 092,0.00000630,-0.00000774,0.00000290,-0.00000472,0.00000174,-0.000003
 99,0.00001190,0.00000328,-0.00074399,-0.00025940,0.00104135,-0.0031237
 8,0.00000641,0.00084138,0.00004326,-0.00002710,-0.00001501,0.00002260,
 -0.00008056,0.00001105,0.00000187,0.00000040,-0.00000468,0.00001328,-0
 .00000867,-0.00000016,-0.00012333,-0.00019298,0.00006597,-0.00004838,-
 0.00000955,-0.00005083,-0.00001932,0.00000672,-0.00002028,-0.00001284,
 0.00001492,-0.00000418,0.00017016,-0.00129797,0.00011163,-0.08910943,0
 .37082641,0.00021944,0.00033214,-0.00041923,0.00004640,-0.00000084,-0.
 00012676,0.00378221,0.00090144,0.00026618,-0.00004997,0.00007485,-0.00
 025070,0.00000280,0.00002507,-0.00002366,0.00004657,0.00002517,-0.0000
 1351,0.00002641,0.00000385,-0.00003833,0.00037208,-0.00021577,-0.00103
 639,0.06293658,-0.21584281,-0.13984773,0.00027933,0.00007384,-0.000073
 01,-0.00013226,-0.00001958,-0.00014960,0.00012954,-0.00016196,0.000603
 21,0.00058500,-0.00010135,-0.00052530,-0.00011567,-0.00003908,0.000226
 67,-0.00131785,-0.00051252,-0.00051182,0.00001895,0.00000927,-0.000027
 13,-0.00007465,-0.00003513,0.00003004,0.00000226,-0.00000505,0.0000042
 9,-0.00019226,0.00232904,0.00275777,-0.00006355,-0.00004538,0.00006858
 ,-0.00214814,-0.01197883,-0.00745093,0.00005787,0.00016603,0.00027111,
 0.00009461,0.00002305,0.00008634,0.00001248,-0.00001165,-0.00000173,-0
 .00013627,-0.00009200,-0.00010347,0.00003909,0.00002416,-0.00002036,0.
 00033212,0.00025294,0.00016810,0.00001683,0.00000879,0.00000468,0.0000
 0284,0.00000751,-0.00002242,0.00001447,0.00000583,-0.00000716,-0.00000
 300,0.00000729,0.00000061,0.00051783,-0.00063953,-0.00051896,-0.002636
 75,-0.00175309,0.00040374,-0.00005435,-0.00001029,-0.00005556,0.000116
 87,-0.00008297,0.00009255,-0.00001042,-0.00000531,-0.00001782,-0.00001
 236,0.00000326,0.00000157,0.00009665,0.00010506,0.00003850,-0.00001286
 ,-0.00003780,0.00001381,-0.00001226,-0.00001467,0.00000373,-0.00001654
 ,-0.00000042,0.00001168,-0.00020872,0.00076713,0.00078791,-0.06229495,
 0.22635955,0.14557776,-0.00028184,-0.00006438,0.00007864,-0.00001974,0
 .00018168,-0.00004041,-0.00088112,-0.00014063,0.00019919,-0.00024660,0
 .00002121,-0.00004944,-0.00003213,0.00007146,0.00001575,0.00006150,0.0
 0007243,0.00000816,0.00004565,0.00005493,-0.00004499,-0.00013100,-0.00
 015988,0.00018176,-0.00009318,-0.00046035,0.00043815,-0.42511242,-0.16
 245221,-0.11661611,-0.00000763,0.00003495,-0.00011369,-0.00076885,0.00
 014897,-0.00040331,0.00041593,0.00012861,-0.00005237,0.00002209,-0.000
 15609,-0.00005129,0.00275048,0.00099764,-0.00106221,0.00002646,-0.0000
 4521,-0.00000026,-0.00006757,-0.00005742,0.00001559,-0.00000748,-0.000
 03412,-0.00000587,0.00021727,0.00002271,-0.00010810,-0.00003333,-0.000
 14903,0.00013992,-0.00015547,0.00062758,-0.00032658,-0.01782823,-0.008
 52154,-0.00360562,-0.00001356,-0.00001604,0.00005467,-0.00004424,-0.00
 003088,0.00009598,-0.00003681,0.00002735,-0.00000176,0.00000418,0.0000
 1602,0.00000267,-0.00015696,-0.00003183,0.00003698,-0.00000371,0.00000
 875,-0.00000795,0.00000116,-0.00000224,-0.00001749,0.00002137,0.000016
 67,-0.00000911,-0.00003985,-0.00005475,-0.00000502,-0.00000864,-0.0000
 1275,0.00002343,0.00003633,0.00001859,-0.00004080,-0.00002395,0.000450
 09,-0.00097346,0.00060354,-0.00000766,0.00310728,0.00000944,0.00001272
 ,-0.00002251,-0.00002277,0.00001093,0.00001705,0.00005725,0.00004794,-
 0.00002860,0.00001833,-0.00004477,0.00000934,-0.00001176,-0.00002881,0
 .00000092,-0.00003114,-0.00000660,0.00000688,-0.00000115,0.00005807,-0
 .00009707,-0.00002497,0.00009446,-0.00033329,0.44176348,0.00078787,0.0
 0014105,-0.00000670,0.00027456,-0.00023937,-0.00012831,-0.00005336,0.0
 0081729,-0.00160867,0.00005295,0.00028960,-0.00040688,0.00011007,-0.00
 003573,0.00000749,0.00007051,-0.00004988,0.00005175,0.00007021,-0.0001
 3027,0.00005557,-0.00016807,0.00037349,-0.00048688,-0.00071788,-0.0003
 8022,-0.00039803,-0.14658855,-0.06722373,-0.02938960,0.00008341,-0.000
 11237,-0.00004585,-0.00113102,-0.00009092,-0.00006166,0.00014881,-0.00
 022513,0.00013633,-0.00038354,-0.00003268,0.00040302,-0.00353405,-0.00
 128877,-0.00011528,-0.00003893,0.00004048,-0.00005153,-0.00003144,0.00
 003259,-0.00005373,-0.00005884,0.00007946,-0.00002863,-0.00032524,0.00
 004840,0.00026457,-0.00007589,0.00022822,-0.00006389,0.00246398,-0.000
 59678,0.00055753,-0.02063365,-0.00934881,-0.00376650,-0.00003638,0.000
 04450,0.00000331,0.00004235,0.00009886,-0.00012599,0.00001032,-0.00003
 710,-0.00000997,-0.00001067,-0.00000907,-0.00002603,0.00026072,-0.0005
 7265,0.00009175,0.00003503,0.00000020,0.00001510,0.00000158,0.00000454
 ,0.00000919,0.00000330,-0.00000856,0.00000600,-0.00000347,0.00002152,-
 0.00002461,0.00001282,-0.00000551,-0.00005572,-0.00005052,-0.00000687,
 0.00002175,0.00105208,0.00110663,-0.00014037,-0.00105368,-0.00108876,0
 .00344425,0.00000730,-0.00000338,-0.00000232,0.00001804,-0.00001870,-0
 .00000684,0.00000300,-0.00002713,0.00002863,-0.00009996,-0.00001698,-0
 .00003414,-0.00002996,0.00001795,-0.00002006,-0.00001071,0.00002852,-0
 .00000578,0.00009098,-0.00002128,0.00012554,0.00013964,0.00024171,0.00
 007338,0.16936854,0.07790996,-0.00057144,-0.00011810,-0.00007354,-0.00
 010796,0.00005808,-0.00002073,0.00107803,-0.00131012,-0.00049427,-0.00
 014202,-0.00017946,0.00011200,-0.00003376,-0.00001100,-0.00004820,0.00
 000705,0.00001377,-0.00004675,-0.00001973,-0.00000395,-0.00002297,0.00
 011910,-0.00042485,0.00040874,0.00047293,0.00000837,0.00016615,-0.1600
 9157,-0.05095109,-0.08823256,-0.00016149,-0.00002379,0.00001428,0.0003
 0478,-0.00006525,-0.00001809,0.00015050,0.00017730,-0.00011887,0.00007
 711,0.00001579,-0.00012006,0.00196839,0.00269122,0.00080516,0.00001139
 ,-0.00000082,0.00003837,-0.00005978,-0.00004803,0.00008516,0.00002272,
 0.00000788,0.00000240,0.00039507,-0.00002945,-0.00020112,0.00000680,-0
 .00010419,0.00003797,-0.00253494,0.00029216,-0.00010787,0.03627444,0.0
 1613500,0.00594248,0.00013516,0.00005537,0.00004090,0.00005713,-0.0000
 2528,-0.00008262,-0.00000104,-0.00002701,-0.00000749,0.00002204,0.0000
 0813,0.00000025,-0.00016946,-0.00044758,-0.00007295,-0.00001270,0.0000
 0605,-0.00001064,-0.00001942,0.00001059,-0.00004773,0.00001309,-0.0000
 0166,-0.00000402,0.00003112,0.00006512,0.00002850,0.00000789,-0.000017
 92,-0.00002808,0.00020971,-0.00035963,0.00005830,0.00106849,-0.0002218
 3,-0.00025011,0.00218894,0.00293013,-0.00412023,-0.00002179,-0.0000224
 7,-0.00001617,0.00000468,0.00000213,-0.00000159,0.00002596,0.00006647,
 -0.00002068,0.00003195,0.00000503,0.00004141,0.00000539,-0.00000424,0.
 00001044,0.00000863,0.00000130,0.00000396,-0.00008698,0.00005450,-0.00
 008262,-0.00025429,0.00008934,-0.00025074,0.11954517,0.03169396,0.0867
 2700,-0.00152203,-0.00072287,0.00028095,-0.00134914,0.00111149,0.00121
 921,-0.00016166,0.00008069,-0.00025669,0.00009194,-0.00081288,-0.00063
 747,-0.00007758,0.00020442,0.00029874,0.00002525,0.00012113,0.00018643
 ,0.00003285,-0.00021362,0.00007163,0.00028742,-0.00025275,-0.00013067,
 0.00010450,0.00014635,-0.00011151,-0.00012468,0.00013072,-0.00007694,-
 0.08667365,0.11478089,-0.05059168,0.00058681,0.00127041,0.00094587,-0.
 00019340,0.00002545,0.00042036,0.00209122,-0.00106789,-0.00101612,0.00
 003897,-0.00025443,0.00006677,-0.00014848,0.00003581,0.00003518,0.0001
 3303,-0.00013895,-0.00010721,-0.00037671,0.00064449,0.00011046,-0.0002
 1567,0.00057686,0.00022384,0.00060864,0.00092108,-0.00128936,-0.000062
 04,-0.00033523,0.00021190,0.00016724,-0.00010422,0.00002459,-0.0206070
 1,0.03742830,-0.01582401,0.00003574,-0.00027128,0.00084485,0.00009024,
 -0.00010034,-0.00011059,0.00004136,0.00008286,0.00008123,0.00004725,0.
 00004614,-0.00013260,-0.00005739,-0.00003471,-0.00002487,-0.00001455,-
 0.00000242,0.00006638,-0.00011707,-0.00006561,0.00002070,-0.00002382,-
 0.00010100,0.00025665,-0.00013852,-0.00021707,-0.00008924,0.00002184,0
 .00002261,-0.00007605,0.00005550,0.00000827,-0.00001617,-0.00002133,-0
 .00001869,-0.00006391,0.00007844,0.00086648,0.00079578,-0.00554234,-0.
 00218445,-0.00244210,-0.00003849,0.00020117,-0.00002893,0.00010838,0.0
 0001775,0.00001275,0.00002385,-0.00001126,-0.00001005,0.00003058,-0.00
 005007,-0.00006673,-0.00010287,0.00002629,0.00004050,-0.00005130,-0.00
 007290,0.00007689,0.00003161,-0.00007228,0.00004470,0.11288708,-0.0007
 4696,-0.00033716,0.00060589,-0.00090903,-0.00066994,0.00036972,-0.0000
 8316,-0.00018589,-0.00004746,-0.00063845,0.00019262,0.00055403,0.00022
 302,0.00008781,0.00039973,0.00015789,-0.00020902,-0.00000379,0.0003698
 7,-0.00025588,0.00014689,-0.00008288,-0.00012338,-0.00000721,-0.000106
 73,-0.00013085,0.00001099,0.00003288,-0.00012227,-0.00001664,0.1601371
 3,-0.44433843,0.12868659,0.00027086,-0.00001227,0.00021755,0.00029321,
 0.00026264,-0.00073227,0.00155223,-0.00123878,-0.00115256,0.00014397,0
 .00020669,0.00001532,-0.00047015,0.00012886,0.00001053,-0.00035282,0.0
 0021751,-0.00011695,0.00013426,-0.00068884,-0.00015543,-0.00003432,0.0
 0017851,0.00019461,-0.00218909,0.00236122,-0.00154463,0.00003193,0.000
 11963,-0.00008616,-0.00008598,0.00016738,0.00008709,-0.00352221,0.0061
 5493,-0.00198807,0.00002660,0.00057124,0.00005289,-0.00004014,-0.00006
 170,0.00013690,0.00000908,-0.00009671,-0.00004413,0.00000800,-0.000041
 23,0.00000302,-0.00002357,-0.00001989,-0.00000959,0.00001183,-0.000025
 51,0.00000367,-0.00002864,0.00000118,0.00001595,0.00015661,-0.00024370
 ,0.00029961,-0.00003360,-0.00000719,-0.00003760,0.00001036,-0.00001300
 ,-0.00001527,0.00000535,-0.00007260,-0.00000100,-0.00001084,0.00000796
 ,-0.00002286,-0.00135249,0.00008942,-0.00029012,-0.00121736,0.00141605
 ,-0.00162109,0.00006270,-0.00000341,0.00012507,-0.00002770,0.00000738,
 -0.00010435,-0.00006052,0.00002628,-0.00006306,0.00003531,-0.00007421,
 0.00005060,0.00001244,0.00001628,0.00001967,-0.00000905,0.00004381,0.0
 0002737,-0.00001511,0.00004567,0.00001002,-0.15164473,0.43666881,-0.00
 017224,0.00064035,0.00067398,0.00076119,0.00081305,0.00070890,-0.00056
 631,-0.00004862,-0.00006789,-0.00024816,0.00030605,-0.00074376,0.00023
 769,0.00032607,0.00050955,0.00034244,0.00012136,0.00030910,0.00043552,
 -0.00041988,0.00012588,-0.00036514,0.00012010,-0.00025015,-0.00029630,
 -0.00013210,-0.00010494,-0.00014909,-0.00023885,0.00030571,-0.05655773
 ,0.10620133,-0.04612781,0.00024905,-0.00126554,-0.00079326,0.00024235,
 -0.00029740,0.00052961,0.00143491,-0.00182016,-0.00101979,0.00033076,0
 .00058754,-0.00000055,-0.00048272,0.00001594,0.00007765,-0.00003197,-0
 .00005125,-0.00026674,-0.00075197,0.00042880,0.00013737,0.00027490,0.0
 0002958,0.00011833,-0.00250481,0.00325822,-0.00146178,0.00052455,-0.00
 007141,0.00009343,0.00003738,0.00012162,-0.00029262,-0.00860583,0.0169
 9199,-0.00624586,0.00111180,0.00011573,-0.00130983,-0.00010904,0.00015
 318,-0.00009389,-0.00000087,0.00014849,0.00008082,-0.00010487,-0.00008
 445,0.00018548,0.00002007,0.00001687,-0.00000368,0.00000972,0.00000226
 ,-0.00003353,0.00015078,0.00006891,0.00002735,0.00010573,-0.00023523,-
 0.00033945,0.00003561,0.00000217,0.00008049,-0.00000987,0.00002090,-0.
 00000987,-0.00001192,0.00011316,0.00005685,-0.00003045,0.00002015,-0.0
 0004408,0.00075157,-0.00087711,0.00103001,-0.00278099,-0.00117627,-0.0
 0095853,-0.00006246,0.00008911,0.00033267,-0.00003603,-0.00007821,-0.0
 0016710,-0.00004573,-0.00001281,-0.00004087,-0.00004368,-0.00004679,0.
 00000737,0.00002748,0.00000997,0.00007933,0.00007836,0.00004190,0.0000
 7348,0.00003979,0.00007480,-0.00002275,0.06676653,-0.12398351,0.054855
 36\\0.00000539,0.00000914,-0.00000855,-0.00001188,0.00000419,-0.000010
 08,0.00002170,0.00000256,0.00001277,0.00000467,0.00001048,0.00000284,0
 .00000092,0.00001542,0.00000938,-0.00000072,0.00000628,0.00001045,-0.0
 0001042,0.00000998,-0.00000321,-0.00000076,-0.00000391,0.00000419,0.00
 000528,-0.00000228,0.00000141,-0.00000682,0.00001068,-0.00000132,-0.00
 001787,0.00000123,0.00000054,-0.00000317,0.00001473,0.00001069,0.00000
 288,-0.00000480,0.00000235,-0.00001047,-0.00000533,-0.00001106,-0.0000
 2560,-0.00000070,-0.00000252,0.00000983,-0.00001367,0.00001298,-0.0000
 0544,0.00000327,-0.00001419,-0.00000046,0.00000296,0.00000905,-0.00000
 598,0.00000890,0.00001093,0.00001126,-0.00002884,0.00001790,-0.0000013
 2,0.00000607,-0.00001580,0.00001215,-0.00000592,-0.00000543,0.00001103
 ,0.00000730,0.00000296,-0.00000024,-0.00001439,-0.00001089,0.00000090,
 -0.00000164,-0.00000663,-0.00000478,-0.00000487,0.00000189,0.00000279,
 -0.00000097,0.00000425,-0.00000067,-0.00000113,-0.00000020,0.00000024,
 -0.00001097,-0.00000230,0.00000192,-0.00000070,0.00000098,0.00001048,0
 .00000720,-0.00001070,-0.00000115,-0.00000131,0.00000095,0.00000135,-0
 .00000302,0.00000191,-0.00000854,0.00000363,-0.00000273,-0.00001150,-0
 .00000107,0.00000486,-0.00000243,-0.00000518,-0.00000001,-0.00000178,0
 .00000380,0.00000199,0.00000059,-0.00001152,-0.00000293,0.00000630,-0.
 00000220,-0.00000349,0.00000209,-0.00000278,-0.00001218,-0.00000511,-0
 .00000013,-0.00000864,0.00000458,0.00000144,0.00000102,0.00000425,0.00
 000543,0.00000748,0.00000787,-0.00000200,0.00000079,0.00000863,-0.0000
 0534,-0.00000169\\\@


 MODELS ARE TO BE USED, NOT BELIEVED.

    -- PARAPHRASED BY H. THIEL IN "PRINCIPLES OF ECONOMETRICS"
 Job cpu time:       1 days 12 hours 47 minutes 41.0 seconds.
 Elapsed time:       0 days  2 hours 18 minutes 32.8 seconds.
 File lengths (MBytes):  RWF=   1730 Int=      0 D2E=      0 Chk=     36 Scr=      1
 Normal termination of Gaussian 16 at Sun Sep 21 00:08:50 2025.
