 Entering Gaussian System, Link 0=g16
 Input=NEBP0050.gjf
 Output=NEBP0050.log
 Initial command:
 /curc/sw/install/gaussian/g16_c.02/g16/l1.exe "/scratch/alpine/lede4234/Molecules/CalV_BD-M9OD/vacuum/Gau-4074387.inp" -scrdir="/scratch/alpine/lede4234/Molecules/CalV_BD-M9OD/vacuum/"
 Default is to use a total of  64 processors:
                               64 via shared-memory
                                1 via Linda
 Entering Link 1 = /curc/sw/install/gaussian/g16_c.02/g16/l1.exe PID=   4074388.
  
 Copyright (c) 1988-2021, Gaussian, Inc.  All Rights Reserved.
  
 This is part of the Gaussian(R) 16 program.  It is based on
 the Gaussian(R) 09 system (copyright 2009, Gaussian, Inc.),
 the Gaussian(R) 03 system (copyright 2003, Gaussian, Inc.),
 the Gaussian(R) 98 system (copyright 1998, Gaussian, Inc.),
 the Gaussian(R) 94 system (copyright 1995, Gaussian, Inc.),
 the Gaussian 92(TM) system (copyright 1992, Gaussian, Inc.),
 the Gaussian 90(TM) system (copyright 1990, Gaussian, Inc.),
 the Gaussian 88(TM) system (copyright 1988, Gaussian, Inc.),
 the Gaussian 86(TM) system (copyright 1986, Carnegie Mellon
 University), and the Gaussian 82(TM) system (copyright 1983,
 Carnegie Mellon University). Gaussian is a federally registered
 trademark of Gaussian, Inc.
  
 This software contains proprietary and confidential information,
 including trade secrets, belonging to Gaussian, Inc.
  
 This software is provided under written license and may be
 used, copied, transmitted, or stored only in accord with that
 written license.
  
 The following legend is applicable only to US Government
 contracts under FAR:
  
                    RESTRICTED RIGHTS LEGEND
  
 Use, reproduction and disclosure by the US Government is
 subject to restrictions as set forth in subparagraphs (a)
 and (c) of the Commercial Computer Software - Restricted
 Rights clause in FAR 52.227-19.
  
 Gaussian, Inc.
 340 Quinnipiac St., Bldg. 40, Wallingford CT 06492
  
  
 ---------------------------------------------------------------
 Warning -- This program may not be used in any manner that
 competes with the business of Gaussian, Inc. or will provide
 assistance to any competitor of Gaussian, Inc.  The licensee
 of this program is prohibited from giving any competitor of
 Gaussian, Inc. access to this program.  By using this program,
 the user acknowledges that Gaussian, Inc. is engaged in the
 business of creating and licensing software in the field of
 computational chemistry and represents and warrants to the
 licensee that it is not a competitor of Gaussian, Inc. and that
 it will not use this program in any manner prohibited above.
 ---------------------------------------------------------------
  

 Cite this work as:
 Gaussian 16, Revision C.02,
 M. J. Frisch, G. W. Trucks, H. B. Schlegel, G. E. Scuseria, 
 M. A. Robb, J. R. Cheeseman, G. Scalmani, V. Barone, 
 G. A. Petersson, H. Nakatsuji, X. Li, M. Caricato, A. V. Marenich, 
 J. Bloino, B. G. Janesko, R. Gomperts, B. Mennucci, H. P. Hratchian, 
 J. V. Ortiz, A. F. Izmaylov, J. L. Sonnenberg, D. Williams-Young, 
 F. Ding, F. Lipparini, F. Egidi, J. Goings, B. Peng, A. Petrone, 
 T. Henderson, D. Ranasinghe, V. G. Zakrzewski, J. Gao, N. Rega, 
 G. Zheng, W. Liang, M. Hada, M. Ehara, K. Toyota, R. Fukuda, 
 J. Hasegawa, M. Ishida, T. Nakajima, Y. Honda, O. Kitao, H. Nakai, 
 T. Vreven, K. Throssell, J. A. Montgomery, Jr., J. E. Peralta, 
 F. Ogliaro, M. J. Bearpark, J. J. Heyd, E. N. Brothers, K. N. Kudin, 
 V. N. Staroverov, T. A. Keith, R. Kobayashi, J. Normand, 
 K. Raghavachari, A. P. Rendell, J. C. Burant, S. S. Iyengar, 
 J. Tomasi, M. Cossi, J. M. Millam, M. Klene, C. Adamo, R. Cammi, 
 J. W. Ochterski, R. L. Martin, K. Morokuma, O. Farkas, 
 J. B. Foresman, and D. J. Fox, Gaussian, Inc., Wallingford CT, 2019.
 
 ******************************************
 Gaussian 16:  ES64L-G16RevC.02  7-Dec-2021
                18-Nov-2025 
 ******************************************
 %chk=NEBP0050.chk
 ----------------------------------------------------------------------
 # opt freq=noraman M08HX/6-311++G** scf=xqc Empiricaldispersion=pfd In
 t(Grid=ultraFine) test
 ----------------------------------------------------------------------
 1/18=20,19=15,26=4,38=1/1,3;
 2/9=110,12=2,17=6,18=5,40=1/2;
 3/5=4,6=6,7=1111,11=2,25=1,30=1,71=1,74=-74,75=-5,124=11/1,2,3;
 4//1;
 5/5=2,8=3,13=1,38=5/2,8;
 6/7=2,8=2,9=2,10=2,28=1/1;
 7//1,2,3,16;
 1/18=20,19=15,26=4/3(2);
 2/9=110/2;
 99//99;
 2/9=110/2;
 3/5=4,6=6,7=1111,11=2,25=1,30=1,71=1,74=-74,75=-5,124=11/1,2,3;
 4/5=5,16=3,69=1/1;
 5/5=2,8=3,13=1,38=5/2,8;
 7//1,2,3,16;
 1/18=20,19=15,26=4/3(-5);
 2/9=110/2;
 6/7=2,8=2,9=2,10=2,19=2,28=1/1;
 99/9=1/99;
 ----------------------------------------------------------
 Neutral NEBP0050 molecule optimization and DFT calculation
 ----------------------------------------------------------
 Symbolic Z-matrix:
 Charge =  0 Multiplicity = 1
 S                    -3.2381    4.8985    0.8789 
 C                    -2.2515    4.1776    3.3184 
 C                    -3.796     3.2962    0.4305 
 C                    -1.0913    3.9784    4.0993 
 C                     3.8421    4.3006    4.9595 
 O                    -4.3466    5.6015    1.4334 
 C                     5.0905    3.8855    4.4857 
 O                    -2.5212    5.4604   -0.2237 
 C                     0.2631    4.3323    3.5909 
 C                     1.3994    4.3383    4.5302 
 H                     1.2287    4.3753    5.4438 
 O                     0.4548    4.6258    2.4138 
 C                    -1.2422    3.4343    5.3728 
 H                    -0.4845    3.2841    5.8906 
 C                     2.6463    4.2923    4.1168 
 H                     2.7817    4.2508    3.1975 
 C                    -3.5986    3.3603    5.1359 
 H                    -4.4374    3.1709    5.4896 
 N                    -2.1075    4.6802    2.0205 
 H                    -1.3079    4.905     1.7972 
 C                    -2.4769    3.1128    5.889 
 H                    -2.5508    2.7325    6.7349 
 C                     6.2181    3.8901    5.2808 
 H                     7.0344    3.6048    4.9386 
 C                    -3.5026    3.8855    3.8657 
 H                    -4.2737    4.0455    3.3712 
 C                     4.9152    4.7458    7.0884 
 H                     4.8534    5.0371    7.9695 
 C                    -2.9494    2.4729   -0.2855 
 H                    -2.0962    2.7574   -0.5224 
 C                     6.1244    4.321     6.5869 
 C                     3.7965    4.7398    6.2871 
 H                     2.9876    5.0356    6.6377 
 C                    -5.069     2.8834    0.7661 
 H                    -5.6367    3.4463    1.2416 
 C                    -4.6635    0.8052   -0.2969 
 H                    -4.9528   -0.046    -0.5362 
 C                    -3.4009    1.2142   -0.6418 
 H                    -2.8453    0.6422   -1.1189 
 C                    -5.4906    1.6262    0.388 
 H                    -6.3484    1.3417    0.6051 
 Br                    7.6751    4.3286    7.70197 
 H                     5.20531   3.55347   3.47502 
 

 GradGradGradGradGradGradGradGradGradGradGradGradGradGradGradGradGradGrad
 Berny optimization.
 Initialization pass.
                           ----------------------------
                           !    Initial Parameters    !
                           ! (Angstroms and Degrees)  !
 --------------------------                            --------------------------
 ! Name  Definition              Value          Derivative Info.                !
 --------------------------------------------------------------------------------
 ! R1    R(1,3)                  1.7549         estimate D2E/DX2                !
 ! R2    R(1,6)                  1.4249         estimate D2E/DX2                !
 ! R3    R(1,8)                  1.4302         estimate D2E/DX2                !
 ! R4    R(1,19)                 1.6215         estimate D2E/DX2                !
 ! R5    R(2,4)                  1.4126         estimate D2E/DX2                !
 ! R6    R(2,19)                 1.3992         estimate D2E/DX2                !
 ! R7    R(2,25)                 1.3965         estimate D2E/DX2                !
 ! R8    R(3,29)                 1.381          estimate D2E/DX2                !
 ! R9    R(3,34)                 1.3797         estimate D2E/DX2                !
 ! R10   R(4,9)                  1.4893         estimate D2E/DX2                !
 ! R11   R(4,13)                 1.3931         estimate D2E/DX2                !
 ! R12   R(5,7)                  1.3983         estimate D2E/DX2                !
 ! R13   R(5,15)                 1.4629         estimate D2E/DX2                !
 ! R14   R(5,32)                 1.3991         estimate D2E/DX2                !
 ! R15   R(7,23)                 1.3797         estimate D2E/DX2                !
 ! R16   R(7,43)                 1.07           estimate D2E/DX2                !
 ! R17   R(9,10)                 1.4743         estimate D2E/DX2                !
 ! R18   R(9,12)                 1.2282         estimate D2E/DX2                !
 ! R19   R(10,11)                0.9301         estimate D2E/DX2                !
 ! R20   R(10,15)                1.3144         estimate D2E/DX2                !
 ! R21   R(13,14)                0.9299         estimate D2E/DX2                !
 ! R22   R(13,21)                1.3763         estimate D2E/DX2                !
 ! R23   R(15,16)                0.9301         estimate D2E/DX2                !
 ! R24   R(17,18)                0.9298         estimate D2E/DX2                !
 ! R25   R(17,21)                1.3735         estimate D2E/DX2                !
 ! R26   R(17,25)                1.3778         estimate D2E/DX2                !
 ! R27   R(19,20)                0.8601         estimate D2E/DX2                !
 ! R28   R(21,22)                0.9304         estimate D2E/DX2                !
 ! R29   R(23,24)                0.93           estimate D2E/DX2                !
 ! R30   R(23,31)                1.3785         estimate D2E/DX2                !
 ! R31   R(25,26)                0.9299         estimate D2E/DX2                !
 ! R32   R(27,28)                0.9301         estimate D2E/DX2                !
 ! R33   R(27,31)                1.3763         estimate D2E/DX2                !
 ! R34   R(27,32)                1.3761         estimate D2E/DX2                !
 ! R35   R(29,30)                0.9301         estimate D2E/DX2                !
 ! R36   R(29,38)                1.3839         estimate D2E/DX2                !
 ! R37   R(31,42)                1.91           estimate D2E/DX2                !
 ! R38   R(32,33)                0.9299         estimate D2E/DX2                !
 ! R39   R(34,35)                0.9302         estimate D2E/DX2                !
 ! R40   R(34,40)                1.3789         estimate D2E/DX2                !
 ! R41   R(36,37)                0.9303         estimate D2E/DX2                !
 ! R42   R(36,38)                1.3713         estimate D2E/DX2                !
 ! R43   R(36,40)                1.3517         estimate D2E/DX2                !
 ! R44   R(38,39)                0.9292         estimate D2E/DX2                !
 ! R45   R(40,41)                0.9295         estimate D2E/DX2                !
 ! A1    A(3,1,6)              107.6122         estimate D2E/DX2                !
 ! A2    A(3,1,8)              108.729          estimate D2E/DX2                !
 ! A3    A(3,1,19)             106.179          estimate D2E/DX2                !
 ! A4    A(6,1,8)              119.7439         estimate D2E/DX2                !
 ! A5    A(6,1,19)             109.5647         estimate D2E/DX2                !
 ! A6    A(8,1,19)             104.251          estimate D2E/DX2                !
 ! A7    A(4,2,19)             118.6127         estimate D2E/DX2                !
 ! A8    A(4,2,25)             119.3183         estimate D2E/DX2                !
 ! A9    A(19,2,25)            122.0639         estimate D2E/DX2                !
 ! A10   A(1,3,29)             118.8096         estimate D2E/DX2                !
 ! A11   A(1,3,34)             120.2884         estimate D2E/DX2                !
 ! A12   A(29,3,34)            120.8881         estimate D2E/DX2                !
 ! A13   A(2,4,9)              121.6467         estimate D2E/DX2                !
 ! A14   A(2,4,13)             118.1293         estimate D2E/DX2                !
 ! A15   A(9,4,13)             120.224          estimate D2E/DX2                !
 ! A16   A(7,5,15)             122.2016         estimate D2E/DX2                !
 ! A17   A(7,5,32)             116.3468         estimate D2E/DX2                !
 ! A18   A(15,5,32)            121.4489         estimate D2E/DX2                !
 ! A19   A(5,7,23)             122.2344         estimate D2E/DX2                !
 ! A20   A(5,7,43)             120.5282         estimate D2E/DX2                !
 ! A21   A(23,7,43)            117.2365         estimate D2E/DX2                !
 ! A22   A(4,9,10)             118.973          estimate D2E/DX2                !
 ! A23   A(4,9,12)             121.728          estimate D2E/DX2                !
 ! A24   A(10,9,12)            119.2977         estimate D2E/DX2                !
 ! A25   A(9,10,11)            118.9801         estimate D2E/DX2                !
 ! A26   A(9,10,15)            122.0474         estimate D2E/DX2                !
 ! A27   A(11,10,15)           118.9725         estimate D2E/DX2                !
 ! A28   A(4,13,14)            118.937          estimate D2E/DX2                !
 ! A29   A(4,13,21)            122.0916         estimate D2E/DX2                !
 ! A30   A(14,13,21)           118.9714         estimate D2E/DX2                !
 ! A31   A(5,15,10)            126.4437         estimate D2E/DX2                !
 ! A32   A(5,15,16)            116.7813         estimate D2E/DX2                !
 ! A33   A(10,15,16)           116.775          estimate D2E/DX2                !
 ! A34   A(18,17,21)           119.4349         estimate D2E/DX2                !
 ! A35   A(18,17,25)           119.4179         estimate D2E/DX2                !
 ! A36   A(21,17,25)           121.1472         estimate D2E/DX2                !
 ! A37   A(1,19,2)             129.0251         estimate D2E/DX2                !
 ! A38   A(1,19,20)            115.4835         estimate D2E/DX2                !
 ! A39   A(2,19,20)            115.4914         estimate D2E/DX2                !
 ! A40   A(13,21,17)           119.0044         estimate D2E/DX2                !
 ! A41   A(13,21,22)           120.5125         estimate D2E/DX2                !
 ! A42   A(17,21,22)           120.483          estimate D2E/DX2                !
 ! A43   A(7,23,24)            120.2843         estimate D2E/DX2                !
 ! A44   A(7,23,31)            119.438          estimate D2E/DX2                !
 ! A45   A(24,23,31)           120.2777         estimate D2E/DX2                !
 ! A46   A(2,25,17)            120.2286         estimate D2E/DX2                !
 ! A47   A(2,25,26)            119.9011         estimate D2E/DX2                !
 ! A48   A(17,25,26)           119.8703         estimate D2E/DX2                !
 ! A49   A(28,27,31)           120.0174         estimate D2E/DX2                !
 ! A50   A(28,27,32)           119.9337         estimate D2E/DX2                !
 ! A51   A(31,27,32)           120.0489         estimate D2E/DX2                !
 ! A52   A(3,29,30)            120.8014         estimate D2E/DX2                !
 ! A53   A(3,29,38)            118.4055         estimate D2E/DX2                !
 ! A54   A(30,29,38)           120.793          estimate D2E/DX2                !
 ! A55   A(23,31,27)           120.0956         estimate D2E/DX2                !
 ! A56   A(23,31,42)           119.9463         estimate D2E/DX2                !
 ! A57   A(27,31,42)           119.9581         estimate D2E/DX2                !
 ! A58   A(5,32,27)            121.8311         estimate D2E/DX2                !
 ! A59   A(5,32,33)            119.0755         estimate D2E/DX2                !
 ! A60   A(27,32,33)           119.0935         estimate D2E/DX2                !
 ! A61   A(3,34,35)            120.4242         estimate D2E/DX2                !
 ! A62   A(3,34,40)            119.2231         estimate D2E/DX2                !
 ! A63   A(35,34,40)           120.3527         estimate D2E/DX2                !
 ! A64   A(37,36,38)           119.6383         estimate D2E/DX2                !
 ! A65   A(37,36,40)           119.72           estimate D2E/DX2                !
 ! A66   A(38,36,40)           120.6417         estimate D2E/DX2                !
 ! A67   A(29,38,36)           120.4593         estimate D2E/DX2                !
 ! A68   A(29,38,39)           119.8011         estimate D2E/DX2                !
 ! A69   A(36,38,39)           119.7396         estimate D2E/DX2                !
 ! A70   A(34,40,36)           120.3727         estimate D2E/DX2                !
 ! A71   A(34,40,41)           119.8163         estimate D2E/DX2                !
 ! A72   A(36,40,41)           119.811          estimate D2E/DX2                !
 ! D1    D(6,1,3,29)           171.9615         estimate D2E/DX2                !
 ! D2    D(6,1,3,34)            -6.6908         estimate D2E/DX2                !
 ! D3    D(8,1,3,29)            40.8703         estimate D2E/DX2                !
 ! D4    D(8,1,3,34)          -137.782          estimate D2E/DX2                !
 ! D5    D(19,1,3,29)          -70.7849         estimate D2E/DX2                !
 ! D6    D(19,1,3,34)          110.5628         estimate D2E/DX2                !
 ! D7    D(3,1,19,2)           -66.3651         estimate D2E/DX2                !
 ! D8    D(3,1,19,20)          113.6636         estimate D2E/DX2                !
 ! D9    D(6,1,19,2)            49.577          estimate D2E/DX2                !
 ! D10   D(6,1,19,20)         -130.3942         estimate D2E/DX2                !
 ! D11   D(8,1,19,2)           178.8862         estimate D2E/DX2                !
 ! D12   D(8,1,19,20)           -1.085          estimate D2E/DX2                !
 ! D13   D(19,2,4,9)             2.0907         estimate D2E/DX2                !
 ! D14   D(19,2,4,13)         -177.8181         estimate D2E/DX2                !
 ! D15   D(25,2,4,9)          -177.1036         estimate D2E/DX2                !
 ! D16   D(25,2,4,13)            2.9877         estimate D2E/DX2                !
 ! D17   D(4,2,19,1)           174.9151         estimate D2E/DX2                !
 ! D18   D(4,2,19,20)           -5.1136         estimate D2E/DX2                !
 ! D19   D(25,2,19,1)           -5.9139         estimate D2E/DX2                !
 ! D20   D(25,2,19,20)         174.0574         estimate D2E/DX2                !
 ! D21   D(4,2,25,17)           -2.4672         estimate D2E/DX2                !
 ! D22   D(4,2,25,26)          177.5648         estimate D2E/DX2                !
 ! D23   D(19,2,25,17)         178.3674         estimate D2E/DX2                !
 ! D24   D(19,2,25,26)          -1.6005         estimate D2E/DX2                !
 ! D25   D(1,3,29,30)            0.4067         estimate D2E/DX2                !
 ! D26   D(1,3,29,38)         -179.6085         estimate D2E/DX2                !
 ! D27   D(34,3,29,30)         179.0507         estimate D2E/DX2                !
 ! D28   D(34,3,29,38)          -0.9645         estimate D2E/DX2                !
 ! D29   D(1,3,34,35)           -0.7971         estimate D2E/DX2                !
 ! D30   D(1,3,34,40)          179.1829         estimate D2E/DX2                !
 ! D31   D(29,3,34,35)        -179.421          estimate D2E/DX2                !
 ! D32   D(29,3,34,40)           0.559          estimate D2E/DX2                !
 ! D33   D(2,4,9,10)           168.7662         estimate D2E/DX2                !
 ! D34   D(2,4,9,12)           -10.81           estimate D2E/DX2                !
 ! D35   D(13,4,9,10)          -11.3269         estimate D2E/DX2                !
 ! D36   D(13,4,9,12)          169.0968         estimate D2E/DX2                !
 ! D37   D(2,4,13,14)          178.9082         estimate D2E/DX2                !
 ! D38   D(2,4,13,21)           -1.1286         estimate D2E/DX2                !
 ! D39   D(9,4,13,14)           -1.0019         estimate D2E/DX2                !
 ! D40   D(9,4,13,21)          178.9613         estimate D2E/DX2                !
 ! D41   D(15,5,7,23)         -179.8452         estimate D2E/DX2                !
 ! D42   D(15,5,7,43)            0.5186         estimate D2E/DX2                !
 ! D43   D(32,5,7,23)            0.7454         estimate D2E/DX2                !
 ! D44   D(32,5,7,43)         -178.8908         estimate D2E/DX2                !
 ! D45   D(7,5,15,10)          161.9771         estimate D2E/DX2                !
 ! D46   D(7,5,15,16)          -18.0561         estimate D2E/DX2                !
 ! D47   D(32,5,15,10)         -18.6433         estimate D2E/DX2                !
 ! D48   D(32,5,15,16)         161.3235         estimate D2E/DX2                !
 ! D49   D(7,5,32,27)           -0.8571         estimate D2E/DX2                !
 ! D50   D(7,5,32,33)          179.1629         estimate D2E/DX2                !
 ! D51   D(15,5,32,27)         179.7287         estimate D2E/DX2                !
 ! D52   D(15,5,32,33)          -0.2513         estimate D2E/DX2                !
 ! D53   D(5,7,23,24)          179.7448         estimate D2E/DX2                !
 ! D54   D(5,7,23,31)           -0.2445         estimate D2E/DX2                !
 ! D55   D(43,7,23,24)          -0.6078         estimate D2E/DX2                !
 ! D56   D(43,7,23,31)         179.403          estimate D2E/DX2                !
 ! D57   D(4,9,10,11)          -18.1035         estimate D2E/DX2                !
 ! D58   D(4,9,10,15)          161.8611         estimate D2E/DX2                !
 ! D59   D(12,9,10,11)         161.4832         estimate D2E/DX2                !
 ! D60   D(12,9,10,15)         -18.5522         estimate D2E/DX2                !
 ! D61   D(9,10,15,5)          179.6452         estimate D2E/DX2                !
 ! D62   D(9,10,15,16)          -0.3216         estimate D2E/DX2                !
 ! D63   D(11,10,15,5)          -0.3902         estimate D2E/DX2                !
 ! D64   D(11,10,15,16)        179.643          estimate D2E/DX2                !
 ! D65   D(4,13,21,17)          -1.3127         estimate D2E/DX2                !
 ! D66   D(4,13,21,22)         178.6085         estimate D2E/DX2                !
 ! D67   D(14,13,21,17)        178.6504         estimate D2E/DX2                !
 ! D68   D(14,13,21,22)         -1.4284         estimate D2E/DX2                !
 ! D69   D(18,17,21,13)       -178.0402         estimate D2E/DX2                !
 ! D70   D(18,17,21,22)          2.0385         estimate D2E/DX2                !
 ! D71   D(25,17,21,13)          1.903          estimate D2E/DX2                !
 ! D72   D(25,17,21,22)       -178.0182         estimate D2E/DX2                !
 ! D73   D(18,17,25,2)         179.9333         estimate D2E/DX2                !
 ! D74   D(18,17,25,26)         -0.0987         estimate D2E/DX2                !
 ! D75   D(21,17,25,2)          -0.0099         estimate D2E/DX2                !
 ! D76   D(21,17,25,26)        179.958          estimate D2E/DX2                !
 ! D77   D(7,23,31,27)          -0.1851         estimate D2E/DX2                !
 ! D78   D(7,23,31,42)         179.8214         estimate D2E/DX2                !
 ! D79   D(24,23,31,27)        179.8256         estimate D2E/DX2                !
 ! D80   D(24,23,31,42)         -0.1679         estimate D2E/DX2                !
 ! D81   D(28,27,31,23)       -179.9386         estimate D2E/DX2                !
 ! D82   D(28,27,31,42)          0.055          estimate D2E/DX2                !
 ! D83   D(32,27,31,23)          0.0738         estimate D2E/DX2                !
 ! D84   D(32,27,31,42)       -179.9326         estimate D2E/DX2                !
 ! D85   D(28,27,32,5)        -179.5162         estimate D2E/DX2                !
 ! D86   D(28,27,32,33)          0.4638         estimate D2E/DX2                !
 ! D87   D(31,27,32,5)           0.4715         estimate D2E/DX2                !
 ! D88   D(31,27,32,33)       -179.5486         estimate D2E/DX2                !
 ! D89   D(3,29,38,36)           0.4668         estimate D2E/DX2                !
 ! D90   D(3,29,38,39)        -179.6009         estimate D2E/DX2                !
 ! D91   D(30,29,38,36)       -179.5483         estimate D2E/DX2                !
 ! D92   D(30,29,38,39)          0.3839         estimate D2E/DX2                !
 ! D93   D(3,34,40,36)           0.3687         estimate D2E/DX2                !
 ! D94   D(3,34,40,41)        -179.6171         estimate D2E/DX2                !
 ! D95   D(35,34,40,36)       -179.6513         estimate D2E/DX2                !
 ! D96   D(35,34,40,41)          0.363          estimate D2E/DX2                !
 ! D97   D(37,36,38,29)       -179.4971         estimate D2E/DX2                !
 ! D98   D(37,36,38,39)          0.5706         estimate D2E/DX2                !
 ! D99   D(40,36,38,29)          0.4455         estimate D2E/DX2                !
 ! D100  D(40,36,38,39)       -179.4868         estimate D2E/DX2                !
 ! D101  D(37,36,40,34)        179.073          estimate D2E/DX2                !
 ! D102  D(37,36,40,41)         -0.9412         estimate D2E/DX2                !
 ! D103  D(38,36,40,34)         -0.8695         estimate D2E/DX2                !
 ! D104  D(38,36,40,41)        179.1163         estimate D2E/DX2                !
 --------------------------------------------------------------------------------
 Trust Radius=3.00D-01 FncErr=1.00D-07 GrdErr=1.00D-06 EigMax=2.50D+02 EigMin=1.00D-04
 Number of steps in this run=    231 maximum allowed number of steps=    258.
 GradGradGradGradGradGradGradGradGradGradGradGradGradGradGradGradGradGrad

                          Input orientation:                          
 ---------------------------------------------------------------------
 Center     Atomic      Atomic             Coordinates (Angstroms)
 Number     Number       Type             X           Y           Z
 ---------------------------------------------------------------------
      1         16           0       -3.238100    4.898500    0.878900
      2          6           0       -2.251500    4.177600    3.318400
      3          6           0       -3.796000    3.296200    0.430500
      4          6           0       -1.091300    3.978400    4.099300
      5          6           0        3.842100    4.300600    4.959500
      6          8           0       -4.346600    5.601500    1.433400
      7          6           0        5.090500    3.885500    4.485700
      8          8           0       -2.521200    5.460400   -0.223700
      9          6           0        0.263100    4.332300    3.590900
     10          6           0        1.399400    4.338300    4.530200
     11          1           0        1.228700    4.375300    5.443800
     12          8           0        0.454800    4.625800    2.413800
     13          6           0       -1.242200    3.434300    5.372800
     14          1           0       -0.484500    3.284100    5.890600
     15          6           0        2.646300    4.292300    4.116800
     16          1           0        2.781700    4.250800    3.197500
     17          6           0       -3.598600    3.360300    5.135900
     18          1           0       -4.437400    3.170900    5.489600
     19          7           0       -2.107500    4.680200    2.020500
     20          1           0       -1.307900    4.905000    1.797200
     21          6           0       -2.476900    3.112800    5.889000
     22          1           0       -2.550800    2.732500    6.734900
     23          6           0        6.218100    3.890100    5.280800
     24          1           0        7.034400    3.604800    4.938600
     25          6           0       -3.502600    3.885500    3.865700
     26          1           0       -4.273700    4.045500    3.371200
     27          6           0        4.915200    4.745800    7.088400
     28          1           0        4.853400    5.037100    7.969500
     29          6           0       -2.949400    2.472900   -0.285500
     30          1           0       -2.096200    2.757400   -0.522400
     31          6           0        6.124400    4.321000    6.586900
     32          6           0        3.796500    4.739800    6.287100
     33          1           0        2.987600    5.035600    6.637700
     34          6           0       -5.069000    2.883400    0.766100
     35          1           0       -5.636700    3.446300    1.241600
     36          6           0       -4.663500    0.805200   -0.296900
     37          1           0       -4.952800   -0.046000   -0.536200
     38          6           0       -3.400900    1.214200   -0.641800
     39          1           0       -2.845300    0.642200   -1.118900
     40          6           0       -5.490600    1.626200    0.388000
     41          1           0       -6.348400    1.341700    0.605100
     42         35           0        7.675100    4.328599    7.701966
     43          1           0        5.205309    3.553472    3.475019
 ---------------------------------------------------------------------
                    Distance matrix (angstroms):
                    1          2          3          4          5
     1  S    0.000000
     2  C    2.728413   0.000000
     3  C    1.754902   3.391506   0.000000
     4  C    3.978230   1.412639   4.608784   0.000000
     5  C    8.193779   6.311917   8.936511   5.018186   0.000000
     6  O    1.424939   3.157556   2.573592   4.509818   9.010024
     7  C    9.132401   7.439951   9.785796   6.194561   1.398319
     8  O    1.430176   3.776875   2.595545   4.788451   8.288684
     9  C    4.464743   2.534048   5.247659   1.489334   3.831881
    10  C    5.928931   3.850111   6.699679   2.553192   2.480424
    11  H    6.408147   4.082671   7.179502   2.710647   2.658945
    12  O    4.008465   2.888467   4.875512   2.377070   4.249723
    13  C    5.130559   2.406604   5.564827   1.393061   5.174109
    14  H    5.941863   3.246051   6.385834   2.014700   4.540891
    15  C    6.743711   4.963773   7.488942   3.750799   1.462925
    16  H    6.483318   5.035184   7.199562   3.985922   2.057079
    17  C    4.540712   2.405403   4.709975   2.782650   7.501953
    18  H    5.067689   3.241252   5.101136   3.712328   8.373013
    19  N    1.621469   1.399245   2.700850   2.417973   6.646770
    20  H    2.137519   1.932237   3.262935   2.491017   6.073544
    21  C    5.373011   2.791521   5.618619   2.423257   6.496507
    22  H    6.281455   3.721608   6.450871   3.260183   6.817635
    23  C   10.479185   8.698724  11.142725   7.404800   2.432513
    24  H   11.121110   9.443574  11.735236   8.177469   3.267316
    25  C    3.164981   1.396464   3.497707   2.424369   7.437293
    26  H    2.830483   2.027198   3.072029   3.265318   8.273692
    27  C   10.249757   8.117718  11.059565   6.752900   2.425276
    28  H   10.759563   8.535284  11.605144   7.172081   3.259641
    29  C    2.706051   4.047365   1.381018   4.994551   8.773539
    30  H    2.802122   4.097906   2.021792   4.884749   8.227764
    31  C   10.980491   8.992183  11.720316   7.640148   2.803166
    32  C    8.874650   6.760736   9.696896   5.408954   1.399106
    33  H    8.481858   6.261157   9.357995   4.919204   2.021571
    34  C    2.724986   4.015905   1.379696   5.303899   9.949913
    35  H    2.827316   4.038252   2.017075   5.395391  10.217644
    36  C    4.491033   5.501020   2.736192   6.492795  10.592110
    37  H    5.421327   6.324062   3.666469   7.252230  11.244817
    38  C    3.989123   5.077996   2.375006   5.954249   9.662374
    39  H    4.718219   5.704497   3.216860   6.437108   9.749470
    40  C    4.002835   5.058523   2.379575   6.217751  10.730812
    41  H    4.732838   5.673528   3.219519   6.840959  11.470056
    42  Br  12.883204  10.852458  13.620800   9.484282   4.713151
    43  H    8.935328   7.484522   9.505727   6.341733   2.149470
                    6          7          8          9         10
     6  O    0.000000
     7  C   10.065786   0.000000
     8  O    2.469408   9.088275   0.000000
     9  C    5.245475   4.929918   4.855524   0.000000
    10  C    6.648486   3.719036   6.263368   1.474279   0.000000
    11  H    6.976449   4.008910   6.881842   2.089849   0.930146
    12  O    4.996661   5.131328   4.063193   1.228192   2.335396
    13  C    5.463783   6.410430   6.087835   2.499500   2.916375
    14  H    6.336623   5.780662   6.802139   2.635574   2.551687
    15  C    7.603637   2.505132   6.848902   2.440863   1.314449
    16  H    7.466532   2.668981   6.425612   2.550441   1.922108
    17  C    4.392151   8.729207   5.856323   4.271362   5.128680
    18  H    4.729569   9.607255   6.446350   5.200828   6.029221
    19  N    2.491395   7.649834   2.411699   2.864775   4.325949
    20  H    3.138656   7.014766   2.421694   2.452221   3.888433
    21  C    5.435235   7.735106   6.548152   3.778365   4.286478
    22  H    6.289830   8.048464   7.474251   4.512442   4.800352
    23  C   11.372962   1.379742  10.447044   6.205911   4.897362
    24  H   12.074784   2.015604  11.018261   6.942338   5.697196
    25  C    3.094039   8.615438   4.490729   3.802058   4.967514
    26  H    2.486266   9.431646   4.242229   4.551162   5.797679
    27  C   10.885412   2.746797  10.453588   5.834854   4.367069
    28  H   11.299520   3.676855  11.031429   6.382769   4.924147
    29  C    3.833396   9.455146   3.018664   5.366936   6.751499
    30  H    4.120480   8.831893   2.752464   4.996583   6.344071
    31  C   11.740532   2.381943  11.064760   6.582627   5.153245
    32  C    9.518981   2.376827   9.100721   4.463235   2.998998
    33  H    9.010853   3.221183   8.809435   4.147351   2.729499
    34  C    2.890540  10.865315   3.756583   6.205650   7.624000
    35  H    2.519133  11.215610   3.988740   6.411852   7.817753
    36  C    5.108704  11.291680   5.125007   7.199084   8.517185
    37  H    6.011743  11.897229   6.027502   7.962919   9.232602
    38  C    4.944614  10.272827   4.356477   6.408057   7.717024
    39  H    5.776053  10.242434   4.911362   6.742492   7.974394
    40  C    4.266686  11.569583   4.888006   7.119453   8.484421
    41  H    4.779035  12.344165   5.683138   7.846695   9.187732
    42  Br  13.617506   4.149803  12.963861   8.475767   7.031686
    43  H    9.980060   1.070000   8.775867   5.004541   4.026699
                   11         12         13         14         15
    11  H    0.000000
    12  O    3.137287   0.000000
    13  C    2.644970   3.613193   0.000000
    14  H    2.079760   3.843251   0.929939   0.000000
    15  C    1.943555   2.795372   4.175420   3.736943   0.000000
    16  H    2.733710   2.483802   4.646544   4.342276   0.930144
    17  C    4.942454   5.043944   2.369434   3.205152   6.395777
    18  H    5.792872   5.959102   3.208165   3.974800   7.302118
    19  N    4.789799   2.592880   3.679528   4.422770   5.209948
    20  H    4.473546   1.888189   3.866806   4.478976   4.625110
    21  C    3.939998   4.791769   1.376339   1.999751   5.547891
    22  H    4.318605   5.593757   2.015012   2.299283   6.024722
    23  C    5.015586   6.478933   7.474777   6.757510   3.778150
    24  H    5.878354   7.120968   8.289735   7.585711   4.517016
    25  C    5.011537   4.279845   2.753968   3.683861   6.167456
    26  H    5.889044   4.859226   3.683743   4.613582   6.964426
    27  C    4.053673   6.462310   6.525097   5.720844   3.766162
    28  H    4.467168   7.098074   6.816756   5.990660   4.502146
    29  C    7.341698   4.848688   5.987920   6.699104   7.348627
    30  H    7.019124   4.315065   5.995072   6.633367   6.809508
    31  C    5.027674   7.046420   7.518449   6.725887   4.266075
    32  C    2.727199   5.116875   5.284768   4.539079   2.496681
    33  H    2.226010   4.942099   4.696312   3.959973   2.650267
    34  C    7.985466   6.021897   6.014115   6.887576   8.528660
    35  H    8.102792   6.314400   6.031466   6.941518   8.808552
    36  C    8.967679   6.938435   7.124813   7.867283   9.223545
    37  H    9.670534   7.731129   7.797264   8.506411   9.910478
    38  C    8.274073   5.986830   6.764927   7.447290   8.287798
    39  H    8.579192   6.264160   7.246235   7.854050   8.419825
    40  C    8.846901   6.960549   6.794583   7.621567   9.339228
    41  H    9.488319   7.767898   7.292682   8.129868  10.096668
    42  Br   6.830634   8.954650   9.259753   8.423247   6.176047
    43  H    4.512751   4.984316   6.722064   6.187206   2.739759
                   16         17         18         19         20
    16  H    0.000000
    17  C    6.727452   0.000000
    18  H    7.650837   0.929818   0.000000
    19  N    5.047176   3.697463   4.443093   0.000000
    20  H    4.371916   4.333627   5.141468   0.860092   0.000000
    21  C    6.015986   1.373545   2.001613   4.190285   4.617507
    22  H    6.576777   2.012168   2.302656   5.120119   5.535832
    23  C    4.034735   9.832054  10.681785   8.976048   8.355008
    24  H    4.640496  10.637641  11.493218   9.656403   9.008490
    25  C    6.330273   1.377846   2.005382   2.445938   3.183517
    26  H    7.060523   2.009832   2.297682   2.630524   3.465860
    27  C    4.464969   8.844018   9.618087   8.660614   8.170013
    28  H    5.261387   9.070681   9.795487   9.163630   8.722176
    29  C    6.938136   5.531773   6.004426   3.301304   3.598232
    30  H    6.313621   5.885325   6.465009   3.188045   3.257936
    31  C    4.760946   9.877503  10.680750   9.420468   8.861228
    32  C    3.288551   7.610242   8.419891   7.284548   6.800102
    33  H    3.534584   6.959890   7.741180   6.885121   6.472930
    34  C    8.331565   4.635155   4.774204   3.684086   4.392711
    35  H    8.679990   4.396228   4.422632   3.818959   4.601631
    36  C    8.917062   6.097365   6.255497   5.188362   5.696812
    37  H    9.603411   6.753477   6.850135   6.080248   6.575899
    38  C    7.885791   6.166575   6.518978   4.557837   4.894014
    39  H    7.957162   6.861345   7.252681   5.167749   5.388757
    40  C    9.122103   5.397159   5.433383   4.841212   5.498305
    41  H    9.926839   5.671357   5.554839   5.579800   6.286879
    42  Br   6.651438  11.602526  12.367194  11.318213  10.765351
    43  H    2.537157   8.961287   9.858333   7.540711   6.860291
                   21         22         23         24         25
    21  C    0.000000
    22  H    0.930396   0.000000
    23  C    8.750836   8.963707   0.000000
    24  H    9.571319   9.790999   0.929969   0.000000
    25  C    2.396428   3.235373   9.823163  10.595201   0.000000
    26  H    3.230749   4.000854  10.665298  11.424714   0.929906
    27  C    7.664750   7.740768   2.386878   3.227155   9.054572
    28  H    7.859053   7.852235   3.226007   3.999325   9.380303
    29  C    6.225526   7.036497  10.818281  11.324693   4.419721
    30  H    6.432518   7.271567  10.202339  10.672791   4.744048
    31  C    8.713735   8.820676   1.378532   2.014432  10.013677
    32  C    6.493163   6.672181   2.756588   3.686553   7.737562
    33  H    5.841102   5.998966   3.686391   4.616354   7.150483
    34  C    5.745930   6.480021  12.198139  12.822732   3.614600
    35  H    5.629732   6.341028  12.531894  13.200368   3.410745
    36  C    6.954969   7.591060  12.610970  13.118273   5.306899
    37  H    7.575704   8.146076  13.195430  13.674602   6.077540
    38  C    6.863658   7.579156  11.608738  12.072751   5.240586
    39  H    7.439775   8.132543  11.560719  11.961554   5.983082
    40  C    6.446190   7.081629  12.890244  13.472136   4.599019
    41  H    6.785640   7.343741  13.648203  14.247813   5.020061
    42  Br  10.384032  10.394796   2.859576   2.927554  11.825999
    43  H    8.064604   8.453286   2.097596   2.343134   8.722990
                   26         27         28         29         30
    26  H    0.000000
    27  C    9.936995   0.000000
    28  H   10.267989   0.930060   0.000000
    29  C    4.195032  11.017822  11.644906   0.000000
    30  H    4.643364  10.537445  11.207423   0.930060   0.000000
    31  C   10.887475   1.376271   2.009931  11.531661  10.980221
    32  C    8.608871   1.376084   2.008954   9.687367   9.220798
    33  H    8.023515   2.000689   2.292358   9.473442   9.072059
    34  C    2.961338  11.963455  12.449153   2.401474   3.242476
    35  H    2.598462  12.133275  12.563339   3.240544   4.015149
    36  C    4.909832  12.720946  13.297132   2.391546   3.233104
    37  H    5.698186  13.359390  13.940818   3.228207   4.002425
    38  C    4.988207  11.890572  12.526074   1.383881   2.024343
    39  H    5.812381  12.017681  12.695832   2.014164   2.321860
    40  C    4.029062  12.763539  13.270709   2.761920   3.691936
    41  H    4.389331  13.434648  13.905779   3.691339   4.621327
    42  Br  12.712572   2.857895   2.921564  13.421000  12.868068
    43  H    9.492338   3.816062   4.746088   9.044801   8.362124
                   31         32         33         34         35
    31  C    0.000000
    32  C    2.384196   0.000000
    33  H    3.217569   0.929912   0.000000
    34  C   12.698055  10.607768  10.198846   0.000000
    35  H   12.948390  10.775689  10.296714   0.930183   0.000000
    36  C   13.271260  11.419358  11.159045   2.369243   3.207727
    37  H   13.874927  12.083524  11.846411   3.207939   3.977996
    38  C   12.354661  10.594436  10.411875   2.747903   3.678079
    39  H   12.384201  10.758841  10.653146   3.677097   4.607261
    40  C   13.438621  11.434339  11.070801   1.378861   2.015625
    41  H   14.150226  12.114091  11.713157   2.009882   2.311058
    42  Br   1.910000   4.149032   4.858515  14.581047  14.822915
    43  H    3.334311   3.361535   4.137329  10.646533  11.070177
                   36         37         38         39         40
    36  C    0.000000
    37  H    0.930323   0.000000
    38  C    1.371275   2.001911   0.000000
    39  H    2.002025   2.292316   0.929247   0.000000
    40  C    1.351748   1.984849   2.365814   3.199471   0.000000
    41  H    1.985025   2.275077   3.202932   3.966508   0.929459
    42  Br  15.120756  15.699311  14.212519  14.215345  15.301396
    43  H   10.916674  11.499272   9.822791   9.715550  11.298077
                   41         42         43
    41  H    0.000000
    42  Br  15.998301   0.000000
    43  H   12.108533   4.956589   0.000000
 Stoichiometry    C21H16BrNO3S
 Framework group  C1[X(C21H16BrNO3S)]
 Deg. of freedom   123
 Full point group                 C1      NOp   1
 Largest Abelian subgroup         C1      NOp   1
 Largest concise Abelian subgroup C1      NOp   1
                         Standard orientation:                         
 ---------------------------------------------------------------------
 Center     Atomic      Atomic             Coordinates (Angstroms)
 Number     Number       Type             X           Y           Z
 ---------------------------------------------------------------------
      1         16           0       -4.536648   -0.564640   -1.387964
      2          6           0       -2.543689    1.027840   -0.420309
      3          6           0       -5.374662   -0.752972    0.142378
      4          6           0       -1.170891    1.120605   -0.100354
      5          6           0        3.556358   -0.563220   -0.106846
      6          8           0       -5.166792    0.498973   -2.096551
      7          6           0        4.371529   -1.612535    0.328736
      8          8           0       -4.409341   -1.849534   -2.002980
      9          6           0       -0.216443    0.025206   -0.427839
     10          6           0        1.230573    0.276917   -0.300229
     11          1           0        1.534215    1.155587   -0.270022
     12          8           0       -0.603595   -1.076721   -0.807740
     13          6           0       -0.721999    2.274032    0.538958
     14          1           0        0.176697    2.340436    0.768572
     15          6           0        2.104984   -0.701774   -0.227122
     16          1           0        1.767557   -1.568106   -0.255061
     17          6           0       -2.887831    3.232958    0.476901
     18          1           0       -3.457373    3.946450    0.653287
     19          7           0       -3.014017   -0.145296   -1.020668
     20          1           0       -2.411480   -0.724593   -1.223454
     21          6           0       -1.566110    3.318405    0.840738
     22          1           0       -1.246687    4.070602    1.285491
     23          6           0        5.740083   -1.481636    0.445401
     24          1           0        6.256039   -2.196509    0.741355
     25          6           0       -3.384290    2.108706   -0.146032
     26          1           0       -4.282346    2.069614   -0.384137
     27          6           0        5.569402    0.772309   -0.321273
     28          1           0        5.972797    1.580878   -0.541503
     29          6           0       -5.060982   -1.832545    0.944460
     30          1           0       -4.413648   -2.447372    0.683770
     31          6           0        6.336168   -0.282060    0.119745
     32          6           0        4.205403    0.631555   -0.436618
     33          1           0        3.700868    1.350544   -0.741964
     34          6           0       -6.348296    0.149431    0.518232
     35          1           0       -6.560003    0.869858   -0.030772
     36          6           0       -6.692492   -1.071953    2.518998
     37          1           0       -7.132076   -1.176457    3.332229
     38          6           0       -5.732760   -1.977447    2.145645
     39          1           0       -5.533093   -2.693696    2.702979
     40          6           0       -7.004725   -0.029125    1.717597
     41          1           0       -7.665769    0.570810    1.976425
     42         35           0        8.228959   -0.083228    0.280704
     43          1           0        3.947068   -2.561685    0.581416
 ---------------------------------------------------------------------
 Rotational constants (GHZ):           0.4136227           0.0400704           0.0391661
 Standard basis: 6-311++G(d,p) (5D, 7F)
 There are   769 symmetry adapted cartesian basis functions of A   symmetry.
 There are   740 symmetry adapted basis functions of A   symmetry.
   740 basis functions,  1188 primitive gaussians,   769 cartesian basis functions
   112 alpha electrons      112 beta electrons
       nuclear repulsion energy      2775.2724839164 Hartrees.
 NAtoms=   43 NActive=   43 NUniq=   43 SFac= 1.00D+00 NAtFMM=   60 NAOKFM=F Big=F
 Integral buffers will be    131072 words long.
 Raffenetti 2 integral format.
 Two-electron integral symmetry is turned on.
 R6APFD:  NTU= -4 IXU= 1 FactS= 1.050
 Nuclear repulsion after empirical dispersion term =     2775.2330107049 Hartrees.
 One-electron integrals computed using PRISM.
 NBasis=   740 RedAO= T EigKep=  1.08D-06  NBF=   740
 NBsUse=   734 1.00D-06 EigRej=  6.90D-07 NBFU=   734
 ExpMin= 3.50D-02 ExpMax= 4.40D+05 ExpMxC= 1.51D+04 IAcc=3 IRadAn=         5 AccDes= 0.00D+00
 Harris functional with IExCor= 1009 and IRadAn=       5 diagonalized for initial guess.
 HarFok:  IExCor= 1009 AccDes= 0.00D+00 IRadAn=         5 IDoV= 1 UseB2=F ITyADJ=14
 ICtDFT=  3500011 ScaDFX=  1.000000  1.000000  1.000000  1.000000
 FoFCou: FMM=F IPFlag=           0 FMFlag=      100000 FMFlg1=           0
         NFxFlg=           0 DoJE=T BraDBF=F KetDBF=T FulRan=T
         wScrn=  0.000000 ICntrl=       500 IOpCl=  0 I1Cent=   200000004 NGrid=           0
         NMat0=    1 NMatS0=      1 NMatT0=    0 NMatD0=    1 NMtDS0=    0 NMtDT0=    0
 Petite list used in FoFCou.
 Requested convergence on RMS density matrix=1.00D-08 within  32 cycles.
 Requested convergence on MAX density matrix=1.00D-06.
 Requested convergence on             energy=1.00D-06.
 No special actions if energy rises.
 SCF Done:  E(RM08HX) =  -4062.21656692     A.U. after   18 cycles
            NFock= 18  Conv=0.44D-08     -V/T= 2.0007
 QCSCF skips out because SCF is already converged.

 **********************************************************************

            Population analysis using the SCF Density.

 **********************************************************************

 Orbital symmetries:
       Occupied  (A) (A) (A) (A) (A) (A) (A) (A) (A) (A) (A) (A)
                 (A) (A) (A) (A) (A) (A) (A) (A) (A) (A) (A) (A)
                 (A) (A) (A) (A) (A) (A) (A) (A) (A) (A) (A) (A)
                 (A) (A) (A) (A) (A) (A) (A) (A) (A) (A) (A) (A)
                 (A) (A) (A) (A) (A) (A) (A) (A) (A) (A) (A) (A)
                 (A) (A) (A) (A) (A) (A) (A) (A) (A) (A) (A) (A)
                 (A) (A) (A) (A) (A) (A) (A) (A) (A) (A) (A) (A)
                 (A) (A) (A) (A) (A) (A) (A) (A) (A) (A) (A) (A)
                 (A) (A) (A) (A) (A) (A) (A) (A) (A) (A) (A) (A)
                 (A) (A) (A) (A)
       Virtual   (A) (A) (A) (A) (A) (A) (A) (A) (A) (A) (A) (A)
                 (A) (A) (A) (A) (A) (A) (A) (A) (A) (A) (A) (A)
                 (A) (A) (A) (A) (A) (A) (A) (A) (A) (A) (A) (A)
                 (A) (A) (A) (A) (A) (A) (A) (A) (A) (A) (A) (A)
                 (A) (A) (A) (A) (A) (A) (A) (A) (A) (A) (A) (A)
                 (A) (A) (A) (A) (A) (A) (A) (A) (A) (A) (A) (A)
                 (A) (A) (A) (A) (A) (A) (A) (A) (A) (A) (A) (A)
                 (A) (A) (A) (A) (A) (A) (A) (A) (A) (A) (A) (A)
                 (A) (A) (A) (A) (A) (A) (A) (A) (A) (A) (A) (A)
                 (A) (A) (A) (A) (A) (A) (A) (A) (A) (A) (A) (A)
                 (A) (A) (A) (A) (A) (A) (A) (A) (A) (A) (A) (A)
                 (A) (A) (A) (A) (A) (A) (A) (A) (A) (A) (A) (A)
                 (A) (A) (A) (A) (A) (A) (A) (A) (A) (A) (A) (A)
                 (A) (A) (A) (A) (A) (A) (A) (A) (A) (A) (A) (A)
                 (A) (A) (A) (A) (A) (A) (A) (A) (A) (A) (A) (A)
                 (A) (A) (A) (A) (A) (A) (A) (A) (A) (A) (A) (A)
                 (A) (A) (A) (A) (A) (A) (A) (A) (A) (A) (A) (A)
                 (A) (A) (A) (A) (A) (A) (A) (A) (A) (A) (A) (A)
                 (A) (A) (A) (A) (A) (A) (A) (A) (A) (A) (A) (A)
                 (A) (A) (A) (A) (A) (A) (A) (A) (A) (A) (A) (A)
                 (A) (A) (A) (A) (A) (A) (A) (A) (A) (A) (A) (A)
                 (A) (A) (A) (A) (A) (A) (A) (A) (A) (A) (A) (A)
                 (A) (A) (A) (A) (A) (A) (A) (A) (A) (A) (A) (A)
                 (A) (A) (A) (A) (A) (A) (A) (A) (A) (A) (A) (A)
                 (A) (A) (A) (A) (A) (A) (A) (A) (A) (A) (A) (A)
                 (A) (A) (A) (A) (A) (A) (A) (A) (A) (A) (A) (A)
                 (A) (A) (A) (A) (A) (A) (A) (A) (A) (A) (A) (A)
                 (A) (A) (A) (A) (A) (A) (A) (A) (A) (A) (A) (A)
                 (A) (A) (A) (A) (A) (A) (A) (A) (A) (A) (A) (A)
                 (A) (A) (A) (A) (A) (A) (A) (A) (A) (A) (A) (A)
                 (A) (A) (A) (A) (A) (A) (A) (A) (A) (A) (A) (A)
                 (A) (A) (A) (A) (A) (A) (A) (A) (A) (A) (A) (A)
                 (A) (A) (A) (A) (A) (A) (A) (A) (A) (A) (A) (A)
                 (A) (A) (A) (A) (A) (A) (A) (A) (A) (A) (A) (A)
                 (A) (A) (A) (A) (A) (A) (A) (A) (A) (A) (A) (A)
                 (A) (A) (A) (A) (A) (A) (A) (A) (A) (A) (A) (A)
                 (A) (A) (A) (A) (A) (A) (A) (A) (A) (A) (A) (A)
                 (A) (A) (A) (A) (A) (A) (A) (A) (A) (A) (A) (A)
                 (A) (A) (A) (A) (A) (A) (A) (A) (A) (A) (A) (A)
                 (A) (A) (A) (A) (A) (A) (A) (A) (A) (A) (A) (A)
                 (A) (A) (A) (A) (A) (A) (A) (A) (A) (A) (A) (A)
                 (A) (A) (A) (A) (A) (A) (A) (A) (A) (A) (A) (A)
                 (A) (A) (A) (A) (A) (A) (A) (A) (A) (A) (A) (A)
                 (A) (A) (A) (A) (A) (A) (A) (A) (A) (A) (A) (A)
                 (A) (A) (A) (A) (A) (A) (A) (A) (A) (A) (A) (A)
                 (A) (A) (A) (A) (A) (A) (A) (A) (A) (A) (A) (A)
                 (A) (A) (A) (A) (A) (A) (A) (A) (A) (A) (A) (A)
                 (A) (A) (A) (A) (A) (A) (A) (A) (A) (A) (A) (A)
                 (A) (A) (A) (A) (A) (A) (A) (A) (A) (A) (A) (A)
                 (A) (A) (A) (A) (A) (A) (A) (A) (A) (A) (A) (A)
                 (A) (A) (A) (A) (A) (A) (A) (A) (A) (A) (A) (A)
                 (A) (A) (A) (A) (A) (A) (A) (A) (A) (A)
 The electronic state is 1-A.
 Alpha  occ. eigenvalues -- -485.27777 -90.09040 -63.24137 -57.13274 -57.13017
 Alpha  occ. eigenvalues --  -57.13010 -19.61405 -19.60491 -19.60275 -14.77233
 Alpha  occ. eigenvalues --  -10.64406 -10.61661 -10.61271 -10.57829 -10.57085
 Alpha  occ. eigenvalues --  -10.56718 -10.56218 -10.55276 -10.54706 -10.54645
 Alpha  occ. eigenvalues --  -10.54642 -10.54592 -10.54576 -10.54560 -10.54008
 Alpha  occ. eigenvalues --  -10.53735 -10.53733 -10.53595 -10.53529 -10.53428
 Alpha  occ. eigenvalues --  -10.52919  -8.98689  -8.42741  -6.83859  -6.82934
 Alpha  occ. eigenvalues --   -6.82923  -6.37659  -6.37635  -6.37488  -2.87394
 Alpha  occ. eigenvalues --   -2.87058  -2.87043  -2.86217  -2.86217  -1.27192
 Alpha  occ. eigenvalues --   -1.18474  -1.14185  -1.09277  -1.02044  -1.01401
 Alpha  occ. eigenvalues --   -0.99857  -0.95959  -0.91736  -0.91311  -0.89975
 Alpha  occ. eigenvalues --   -0.89910  -0.89784  -0.88712  -0.84769  -0.80399
 Alpha  occ. eigenvalues --   -0.78566  -0.76139  -0.75532  -0.75430  -0.73929
 Alpha  occ. eigenvalues --   -0.71858  -0.71255  -0.68331  -0.68177  -0.65489
 Alpha  occ. eigenvalues --   -0.64374  -0.63348  -0.61081  -0.59388  -0.58498
 Alpha  occ. eigenvalues --   -0.57906  -0.57306  -0.57077  -0.56495  -0.55796
 Alpha  occ. eigenvalues --   -0.55133  -0.54316  -0.53928  -0.53344  -0.52706
 Alpha  occ. eigenvalues --   -0.52351  -0.50807  -0.49247  -0.48817  -0.48315
 Alpha  occ. eigenvalues --   -0.47770  -0.47311  -0.46782  -0.46160  -0.45519
 Alpha  occ. eigenvalues --   -0.44967  -0.43785  -0.43359  -0.42014  -0.41303
 Alpha  occ. eigenvalues --   -0.40741  -0.39374  -0.38787  -0.36445  -0.36123
 Alpha  occ. eigenvalues --   -0.35200  -0.34630  -0.34422  -0.34109  -0.33696
 Alpha  occ. eigenvalues --   -0.30385  -0.29762
 Alpha virt. eigenvalues --   -0.07744  -0.03696  -0.03193  -0.03001  -0.02737
 Alpha virt. eigenvalues --   -0.02355  -0.01703  -0.01664  -0.01535  -0.01220
 Alpha virt. eigenvalues --   -0.00795  -0.00500  -0.00427   0.00006   0.00364
 Alpha virt. eigenvalues --    0.00787   0.00993   0.01146   0.01496   0.01907
 Alpha virt. eigenvalues --    0.02238   0.02889   0.03081   0.03187   0.03576
 Alpha virt. eigenvalues --    0.03731   0.04100   0.04298   0.04920   0.05057
 Alpha virt. eigenvalues --    0.05107   0.05877   0.06175   0.06669   0.06802
 Alpha virt. eigenvalues --    0.07262   0.07652   0.07872   0.07960   0.08488
 Alpha virt. eigenvalues --    0.09060   0.09242   0.09307   0.09516   0.09766
 Alpha virt. eigenvalues --    0.10076   0.10099   0.10367   0.10497   0.10623
 Alpha virt. eigenvalues --    0.10888   0.10971   0.11302   0.11406   0.11557
 Alpha virt. eigenvalues --    0.11909   0.11942   0.12259   0.12533   0.12650
 Alpha virt. eigenvalues --    0.12843   0.13116   0.13437   0.13545   0.13819
 Alpha virt. eigenvalues --    0.14040   0.14184   0.14487   0.14696   0.14982
 Alpha virt. eigenvalues --    0.15322   0.15496   0.15613   0.15875   0.16009
 Alpha virt. eigenvalues --    0.16409   0.16671   0.16691   0.16984   0.17246
 Alpha virt. eigenvalues --    0.17566   0.17735   0.18082   0.18207   0.18533
 Alpha virt. eigenvalues --    0.18895   0.19208   0.19273   0.19465   0.19999
 Alpha virt. eigenvalues --    0.20214   0.20342   0.20790   0.20914   0.21155
 Alpha virt. eigenvalues --    0.21406   0.21659   0.21725   0.22555   0.22626
 Alpha virt. eigenvalues --    0.22828   0.23293   0.23335   0.23623   0.23879
 Alpha virt. eigenvalues --    0.24404   0.24579   0.25161   0.25348   0.25577
 Alpha virt. eigenvalues --    0.26136   0.26237   0.26613   0.26876   0.26952
 Alpha virt. eigenvalues --    0.27477   0.27856   0.28312   0.28908   0.29240
 Alpha virt. eigenvalues --    0.29455   0.29527   0.29762   0.30305   0.30560
 Alpha virt. eigenvalues --    0.30926   0.31040   0.31550   0.31914   0.32009
 Alpha virt. eigenvalues --    0.32513   0.32873   0.33110   0.33368   0.33921
 Alpha virt. eigenvalues --    0.34400   0.34858   0.35215   0.35473   0.35885
 Alpha virt. eigenvalues --    0.36218   0.36402   0.36802   0.37030   0.37072
 Alpha virt. eigenvalues --    0.37288   0.38054   0.38243   0.38660   0.38927
 Alpha virt. eigenvalues --    0.39142   0.39473   0.39994   0.40704   0.40847
 Alpha virt. eigenvalues --    0.41242   0.41594   0.42251   0.42463   0.43413
 Alpha virt. eigenvalues --    0.44091   0.44829   0.44862   0.45350   0.46740
 Alpha virt. eigenvalues --    0.47380   0.48080   0.48606   0.50035   0.50379
 Alpha virt. eigenvalues --    0.50484   0.50915   0.51777   0.53325   0.53604
 Alpha virt. eigenvalues --    0.54179   0.55018   0.55945   0.56011   0.56697
 Alpha virt. eigenvalues --    0.57251   0.57575   0.57754   0.58049   0.58375
 Alpha virt. eigenvalues --    0.58556   0.58988   0.59273   0.59819   0.59991
 Alpha virt. eigenvalues --    0.60197   0.60824   0.61274   0.61517   0.62217
 Alpha virt. eigenvalues --    0.62756   0.63255   0.63658   0.64046   0.64348
 Alpha virt. eigenvalues --    0.64851   0.64960   0.65459   0.66198   0.66587
 Alpha virt. eigenvalues --    0.67334   0.67682   0.67878   0.68305   0.69006
 Alpha virt. eigenvalues --    0.69206   0.70034   0.70442   0.71367   0.71569
 Alpha virt. eigenvalues --    0.71829   0.72308   0.72994   0.73562   0.74029
 Alpha virt. eigenvalues --    0.74099   0.74793   0.75113   0.75216   0.75619
 Alpha virt. eigenvalues --    0.76190   0.76445   0.77264   0.77779   0.78339
 Alpha virt. eigenvalues --    0.78730   0.79201   0.79369   0.79811   0.80285
 Alpha virt. eigenvalues --    0.80691   0.81212   0.82370   0.82945   0.83121
 Alpha virt. eigenvalues --    0.84309   0.85223   0.85304   0.86061   0.86362
 Alpha virt. eigenvalues --    0.86668   0.87025   0.87390   0.87485   0.87761
 Alpha virt. eigenvalues --    0.88529   0.89007   0.89195   0.89331   0.90930
 Alpha virt. eigenvalues --    0.91287   0.91951   0.91987   0.92644   0.93106
 Alpha virt. eigenvalues --    0.94191   0.94293   0.94744   0.95589   0.95692
 Alpha virt. eigenvalues --    0.95731   0.97033   0.98425   0.98548   0.99738
 Alpha virt. eigenvalues --    1.00279   1.00822   1.01075   1.01192   1.02215
 Alpha virt. eigenvalues --    1.02922   1.04321   1.04693   1.05008   1.05849
 Alpha virt. eigenvalues --    1.06280   1.06922   1.07278   1.07503   1.07994
 Alpha virt. eigenvalues --    1.08959   1.09565   1.10051   1.11028   1.11424
 Alpha virt. eigenvalues --    1.12096   1.13012   1.13059   1.13635   1.14195
 Alpha virt. eigenvalues --    1.15823   1.16085   1.16560   1.17612   1.17856
 Alpha virt. eigenvalues --    1.18603   1.18717   1.19470   1.20914   1.22434
 Alpha virt. eigenvalues --    1.23862   1.24151   1.25698   1.26176   1.27317
 Alpha virt. eigenvalues --    1.27909   1.28985   1.29620   1.30021   1.30369
 Alpha virt. eigenvalues --    1.31477   1.32117   1.32317   1.34289   1.34706
 Alpha virt. eigenvalues --    1.36774   1.37407   1.38187   1.41895   1.43063
 Alpha virt. eigenvalues --    1.46674   1.49030   1.50821   1.51216   1.51317
 Alpha virt. eigenvalues --    1.52419   1.53795   1.55124   1.55571   1.55798
 Alpha virt. eigenvalues --    1.56743   1.57428   1.57699   1.58358   1.58684
 Alpha virt. eigenvalues --    1.59844   1.60593   1.61355   1.61965   1.63354
 Alpha virt. eigenvalues --    1.64056   1.64430   1.64798   1.65361   1.66843
 Alpha virt. eigenvalues --    1.67115   1.68012   1.69052   1.69441   1.71308
 Alpha virt. eigenvalues --    1.71743   1.71968   1.72737   1.73242   1.74126
 Alpha virt. eigenvalues --    1.75497   1.76060   1.76796   1.77870   1.78888
 Alpha virt. eigenvalues --    1.80012   1.81031   1.81423   1.82609   1.84194
 Alpha virt. eigenvalues --    1.85388   1.86287   1.86730   1.87050   1.88483
 Alpha virt. eigenvalues --    1.88784   1.89295   1.90006   1.90097   1.90984
 Alpha virt. eigenvalues --    1.92384   1.93238   1.94135   1.94854   1.95679
 Alpha virt. eigenvalues --    1.96617   1.97276   1.98329   1.98886   1.99445
 Alpha virt. eigenvalues --    1.99741   1.99826   2.00405   2.00446   2.00961
 Alpha virt. eigenvalues --    2.01885   2.02753   2.03435   2.04024   2.05106
 Alpha virt. eigenvalues --    2.05132   2.05846   2.06764   2.07843   2.09583
 Alpha virt. eigenvalues --    2.09972   2.11160   2.11899   2.12740   2.13594
 Alpha virt. eigenvalues --    2.14005   2.14370   2.16675   2.18006   2.18214
 Alpha virt. eigenvalues --    2.19172   2.20022   2.21234   2.23370   2.23793
 Alpha virt. eigenvalues --    2.25229   2.25871   2.26936   2.29742   2.32051
 Alpha virt. eigenvalues --    2.32893   2.34104   2.35020   2.36143   2.36712
 Alpha virt. eigenvalues --    2.37006   2.37417   2.38438   2.39116   2.40167
 Alpha virt. eigenvalues --    2.40306   2.41653   2.42867   2.43881   2.45339
 Alpha virt. eigenvalues --    2.46277   2.47442   2.47862   2.48680   2.52020
 Alpha virt. eigenvalues --    2.53198   2.55148   2.56089   2.59214   2.59779
 Alpha virt. eigenvalues --    2.61978   2.65433   2.67435   2.68864   2.69262
 Alpha virt. eigenvalues --    2.71840   2.73348   2.74385   2.76263   2.77549
 Alpha virt. eigenvalues --    2.78293   2.78746   2.79570   2.80494   2.81857
 Alpha virt. eigenvalues --    2.82743   2.83518   2.85679   2.85948   2.86535
 Alpha virt. eigenvalues --    2.88215   2.89917   2.90449   2.91469   2.91747
 Alpha virt. eigenvalues --    2.92379   2.93396   2.93792   2.94296   2.95288
 Alpha virt. eigenvalues --    2.95608   2.96420   2.96614   2.97177   2.97838
 Alpha virt. eigenvalues --    2.98492   2.99054   3.00195   3.00567   3.00808
 Alpha virt. eigenvalues --    3.01439   3.01769   3.02735   3.02849   3.04136
 Alpha virt. eigenvalues --    3.04812   3.05226   3.06035   3.07688   3.08693
 Alpha virt. eigenvalues --    3.10596   3.11434   3.12281   3.13087   3.14426
 Alpha virt. eigenvalues --    3.16081   3.16456   3.17444   3.18330   3.20155
 Alpha virt. eigenvalues --    3.21286   3.21981   3.24564   3.25568   3.25731
 Alpha virt. eigenvalues --    3.26375   3.29023   3.29555   3.33817   3.34763
 Alpha virt. eigenvalues --    3.38272   3.40074   3.40978   3.42364   3.45219
 Alpha virt. eigenvalues --    3.46108   3.50454   3.52087   3.53270   3.53728
 Alpha virt. eigenvalues --    3.57393   3.61715   3.63360   3.65420   3.67719
 Alpha virt. eigenvalues --    3.68839   3.70770   3.72455   3.73432   3.73972
 Alpha virt. eigenvalues --    3.76372   3.76729   3.81433   3.84496   3.87498
 Alpha virt. eigenvalues --    3.89040   3.90474   3.95160   4.03990   4.06025
 Alpha virt. eigenvalues --    4.16043   4.19229   4.27407   4.28879   4.30065
 Alpha virt. eigenvalues --    4.31505   4.32411   4.33306   4.33860   4.35225
 Alpha virt. eigenvalues --    4.35864   4.38472   4.40312   4.42810   4.44350
 Alpha virt. eigenvalues --    4.54324   4.55904   4.62608   4.68446   4.74611
 Alpha virt. eigenvalues --    4.91354   4.92752   4.94123   5.18792   5.21180
 Alpha virt. eigenvalues --    5.22658   5.24915   5.26345   5.30553   5.34898
 Alpha virt. eigenvalues --    5.48677   5.50945   5.91871   6.91826   7.63396
 Alpha virt. eigenvalues --    7.75388   7.82546   8.43982  17.60587  17.62981
 Alpha virt. eigenvalues --   17.83761  23.72262  23.79801  23.84833  23.92732
 Alpha virt. eigenvalues --   24.00235  24.03557  24.05542  24.10348  24.11233
 Alpha virt. eigenvalues --   24.12519  24.18154  24.21749  24.24255  24.27870
 Alpha virt. eigenvalues --   24.28807  24.29530  24.30863  24.35842  24.41013
 Alpha virt. eigenvalues --   24.44301  24.45982  35.82268  48.47837  49.94510
 Alpha virt. eigenvalues --   49.98774  50.04738 189.25309 290.54119 290.67305
 Alpha virt. eigenvalues --  290.761951019.61187
          Condensed to atoms (all electrons):
               1          2          3          4          5          6
     1  S   26.522900   0.073302  -5.615114  -0.094270  -0.013393   1.314780
     2  C    0.073302  47.772798  -1.422692   5.557973   0.345709   1.209623
     3  C   -5.615114  -1.422692  56.443225  -1.981941   0.026806  -0.580074
     4  C   -0.094270   5.557973  -1.981941  44.512702   0.457931   0.180256
     5  C   -0.013393   0.345709   0.026806   0.457931  21.839012  -0.001133
     6  O    1.314780   1.209623  -0.580074   0.180256  -0.001133   9.101536
     7  C   -0.000865  -0.056058   0.008261  -0.343056   3.549266  -0.000084
     8  O   -1.338190  -0.666249   0.776244   0.172179   0.002372  -0.674802
     9  C   -0.054069  -2.709963   2.277311  -2.646454   0.208258  -0.193400
    10  C    0.028972  -4.095374   0.629198 -10.345247  -9.885472  -0.050111
    11  H    0.000038  -0.145729   0.000708   0.534020  -0.049347  -0.000065
    12  O    0.092665   0.100798  -0.017776   0.350266   0.032703   0.007864
    13  C    0.550772  -6.354366  -1.128452 -13.842376  -0.262789   0.053137
    14  H   -0.016810   0.005635   0.000256  -0.148139   0.066057   0.000161
    15  C    0.048706  -1.234291   0.323418  -6.088479  -1.657563  -0.014385
    16  H   -0.009113   0.011725   0.014148  -0.159432  -0.077369  -0.000533
    17  C   -1.725346 -26.283585   0.148166   1.771850   0.123475  -0.604574
    18  H   -0.026094  -0.352104  -0.105425   0.218113   0.003073  -0.006640
    19  N   -2.488211  -1.657761  -0.901736  -0.900561  -0.003503  -0.326358
    20  H    0.361966   0.492483  -0.330377   0.037041  -0.048605   0.149475
    21  C    0.384977   7.263225   0.110654  -6.581572  -0.809174   0.068105
    22  H    0.008025   0.222938   0.019387  -0.004931  -0.014648   0.001474
    23  C    0.000197   0.014237  -0.000020   0.040751  -0.557814  -0.000001
    24  H    0.000003   0.000233  -0.000002  -0.000611  -0.048030  -0.000000
    25  C   -1.630456 -13.342066   0.290776  -7.655801   0.197308  -0.909941
    26  H    0.106510   0.528356  -0.237874  -0.228545  -0.003988  -0.001731
    27  C    0.000017  -0.028081  -0.000106  -0.079976  -2.010231   0.000003
    28  H    0.000009  -0.000574  -0.000012   0.005206   0.120337   0.000000
    29  C    3.518611   3.012525 -15.012058   2.206140  -0.016974   1.772476
    30  H   -0.506967  -0.145217   0.175503  -0.000888   0.002111  -0.053084
    31  C   -0.000149   0.004256   0.000255  -0.031047  -1.848405  -0.000001
    32  C   -0.001097   0.066757   0.001711  -0.382745  -4.972048  -0.000014
    33  H    0.000121   0.019959  -0.000300  -0.085378  -0.331059  -0.000008
    34  C   -3.502921  -5.022129 -11.015854  -1.008636   0.006593  -2.228659
    35  H   -0.141143  -0.176894  -0.094402   0.018845   0.000384  -0.032608
    36  C   -0.248895  -0.938080  -2.910456   0.030352   0.000545  -0.081120
    37  H   -0.043015  -0.042245   0.061193   0.000285   0.000043  -0.003232
    38  C    2.165994   1.868273  -6.131163   0.080550  -0.007076   0.292295
    39  H    0.061885   0.041175   0.068106  -0.005571  -0.000334   0.003350
    40  C   -1.629749   1.050836  -7.844808   0.034112  -0.001022  -0.301979
    41  H    0.017589   0.068209  -0.070814  -0.001208  -0.000031   0.003193
    42  Br  -0.000002   0.000027   0.000001   0.000108   0.049704  -0.000000
    43  H    0.000289  -0.000853  -0.000456   0.017278   0.005522   0.000004
               7          8          9         10         11         12
     1  S   -0.000865  -1.338190  -0.054069   0.028972   0.000038   0.092665
     2  C   -0.056058  -0.666249  -2.709963  -4.095374  -0.145729   0.100798
     3  C    0.008261   0.776244   2.277311   0.629198   0.000708  -0.017776
     4  C   -0.343056   0.172179  -2.646454 -10.345247   0.534020   0.350266
     5  C    3.549266   0.002372   0.208258  -9.885472  -0.049347   0.032703
     6  O   -0.000084  -0.674802  -0.193400  -0.050111  -0.000065   0.007864
     7  C   18.895502  -0.000058  -1.207573  -3.837847   0.183102   0.009045
     8  O   -0.000058   9.418966  -0.417511  -0.026028  -0.001005  -0.003343
     9  C   -1.207573  -0.417511  36.077079   7.005618   1.091515   0.338895
    10  C   -3.837847  -0.026028   7.005618  33.055877   1.558055  -0.561010
    11  H    0.183102  -0.001005   1.091515   1.558055   1.317893  -0.011110
    12  O    0.009045  -0.003343   0.338895  -0.561010  -0.011110   7.830368
    13  C   -0.571567   0.048008 -10.027822  -5.360758  -0.917413  -0.048841
    14  H   -0.000275   0.000467  -0.356578  -0.346132  -0.192941   0.003394
    15  C   -1.829233  -0.008091 -13.175656   3.076347  -0.837722   0.223937
    16  H   -0.179732   0.001670   0.097820   0.088370  -0.016593   0.000298
    17  C    0.004227   0.194710   0.848390   0.579003   0.104395  -0.091613
    18  H    0.000178   0.002689  -0.026191  -0.005038   0.001981   0.000091
    19  N   -0.002376   0.155312   1.595416   0.509303   0.027069  -0.046591
    20  H   -0.006258  -0.164826  -0.087218  -0.107224  -0.009278   0.068517
    21  C   -0.148675  -0.026732  -1.150317  -0.741467  -0.195359   0.010592
    22  H   -0.002155  -0.000545   0.040576  -0.008848   0.009124   0.000187
    23  C    0.524959   0.000003   0.104131  -0.980922   0.001945   0.001523
    24  H    0.019781   0.000000   0.011079  -0.006874   0.002945   0.000056
    25  C   -0.005104   0.921594  -7.630278  -1.695614  -0.281494  -0.111515
    26  H   -0.000688   0.002008  -0.168529  -0.070575  -0.008043   0.008513
    27  C    2.822985  -0.000008   0.020064   0.335766  -0.029901  -0.004441
    28  H    0.162369  -0.000000   0.032927   0.041663   0.040239   0.000057
    29  C   -0.005421  -1.848809  -1.868955  -0.509232  -0.000902  -0.067948
    30  H   -0.000505   0.074007  -0.010651  -0.001215   0.000100  -0.013884
    31  C   -2.867090   0.000003  -0.382214  -0.700111  -0.089266  -0.000970
    32  C   -9.440945   0.000092  -1.902684  -0.647582  -0.741540  -0.003176
    33  H   -0.269396   0.000027  -0.235682  -0.395025  -0.261959   0.000413
    34  C    0.000463   1.723794   0.341856   0.151018  -0.002982   0.030266
    35  H    0.000035  -0.007788   0.007069   0.004398   0.000410  -0.001207
    36  C   -0.000028   0.068775  -0.173514  -0.020097  -0.001136  -0.001178
    37  H   -0.000003   0.004298  -0.004853  -0.000404  -0.000024  -0.000081
    38  C    0.000159  -0.650998   0.200388  -0.007883   0.001795   0.019448
    39  H    0.000065  -0.011426   0.016433   0.002703   0.000126   0.000824
    40  C   -0.000194   0.299277  -0.048090  -0.009102   0.000438  -0.004362
    41  H   -0.000001  -0.001507   0.002287   0.000099  -0.000004   0.000078
    42  Br   0.060297   0.000000  -0.003201  -0.009180  -0.006987  -0.000019
    43  H    0.466343  -0.000031  -0.002528  -0.065626  -0.001084  -0.000117
              13         14         15         16         17         18
     1  S    0.550772  -0.016810   0.048706  -0.009113  -1.725346  -0.026094
     2  C   -6.354366   0.005635  -1.234291   0.011725 -26.283585  -0.352104
     3  C   -1.128452   0.000256   0.323418   0.014148   0.148166  -0.105425
     4  C  -13.842376  -0.148139  -6.088479  -0.159432   1.771850   0.218113
     5  C   -0.262789   0.066057  -1.657563  -0.077369   0.123475   0.003073
     6  O    0.053137   0.000161  -0.014385  -0.000533  -0.604574  -0.006640
     7  C   -0.571567  -0.000275  -1.829233  -0.179732   0.004227   0.000178
     8  O    0.048008   0.000467  -0.008091   0.001670   0.194710   0.002689
     9  C  -10.027822  -0.356578 -13.175656   0.097820   0.848390  -0.026191
    10  C   -5.360758  -0.346132   3.076347   0.088370   0.579003  -0.005038
    11  H   -0.917413  -0.192941  -0.837722  -0.016593   0.104395   0.001981
    12  O   -0.048841   0.003394   0.223937   0.000298  -0.091613   0.000091
    13  C   36.278124   1.102065  -3.264953   0.039395   3.159902   0.004938
    14  H    1.102065   0.640933   0.005682  -0.001982  -0.022767   0.006273
    15  C   -3.264953   0.005682  28.479735   0.367245   0.004182  -0.004125
    16  H    0.039395  -0.001982   0.367245   0.477187   0.012638   0.000071
    17  C    3.159902  -0.022767   0.004182   0.012638  37.283189   1.006429
    18  H    0.004938   0.006273  -0.004125   0.000071   1.006429   0.499110
    19  N   -0.893605  -0.013687  -0.043424   0.002999   0.543015   0.000223
    20  H    0.305479   0.004908  -0.197793  -0.008130  -0.506941  -0.008425
    21  C   -2.156994  -0.402838  -0.693324  -0.010985  -6.044619  -0.360047
    22  H   -0.203110  -0.039707  -0.003349  -0.000143  -0.335547  -0.033469
    23  C    0.012072   0.000669  -0.492254   0.002588   0.000621   0.000005
    24  H    0.000541  -0.000222  -0.015672   0.005115   0.000012   0.000000
    25  C   10.031839   0.410650   0.027698   0.026837  -3.371670  -0.137352
    26  H    0.226144   0.009539  -0.004547   0.000517  -1.002599  -0.034735
    27  C   -0.039983   0.009600  -1.350465  -0.051273  -0.002259  -0.000128
    28  H   -0.001601  -0.003844  -0.042262  -0.001288   0.000148   0.000008
    29  C    1.111092  -0.040077  -0.206650  -0.014930  -1.754723  -0.086156
    30  H   -0.004386   0.000016   0.005410  -0.000450   0.076763   0.000572
    31  C   -0.028968   0.007623   0.196834  -0.003543   0.001297   0.000014
    32  C    0.283321   0.060835   4.303304   0.143530  -0.004750  -0.000628
    33  H    0.115165   0.030481   0.275788   0.017514  -0.006898  -0.000288
    34  C   -0.283464   0.042626   0.025625   0.006257   2.915526   0.154399
    35  H   -0.004581  -0.000819   0.001215  -0.000043   0.192416   0.004006
    36  C    0.164104   0.001979  -0.002840   0.000017   0.484556   0.014333
    37  H    0.004975   0.000081  -0.000112   0.000029   0.026357   0.000678
    38  C   -0.124883  -0.002249  -0.007106  -0.004531  -0.799692  -0.005056
    39  H   -0.010688  -0.000122   0.000726  -0.000097  -0.017805  -0.000229
    40  C   -0.117063  -0.000058  -0.012476   0.000313  -0.187179   0.015961
    41  H   -0.006004   0.000021  -0.000047  -0.000011  -0.053017  -0.001881
    42  Br  -0.000141   0.000437  -0.010519  -0.001020  -0.000004   0.000000
    43  H   -0.006872   0.000803  -0.026144  -0.019846  -0.000353  -0.000001
              19         20         21         22         23         24
     1  S   -2.488211   0.361966   0.384977   0.008025   0.000197   0.000003
     2  C   -1.657761   0.492483   7.263225   0.222938   0.014237   0.000233
     3  C   -0.901736  -0.330377   0.110654   0.019387  -0.000020  -0.000002
     4  C   -0.900561   0.037041  -6.581572  -0.004931   0.040751  -0.000611
     5  C   -0.003503  -0.048605  -0.809174  -0.014648  -0.557814  -0.048030
     6  O   -0.326358   0.149475   0.068105   0.001474  -0.000001  -0.000000
     7  C   -0.002376  -0.006258  -0.148675  -0.002155   0.524959   0.019781
     8  O    0.155312  -0.164826  -0.026732  -0.000545   0.000003   0.000000
     9  C    1.595416  -0.087218  -1.150317   0.040576   0.104131   0.011079
    10  C    0.509303  -0.107224  -0.741467  -0.008848  -0.980922  -0.006874
    11  H    0.027069  -0.009278  -0.195359   0.009124   0.001945   0.002945
    12  O   -0.046591   0.068517   0.010592   0.000187   0.001523   0.000056
    13  C   -0.893605   0.305479  -2.156994  -0.203110   0.012072   0.000541
    14  H   -0.013687   0.004908  -0.402838  -0.039707   0.000669  -0.000222
    15  C   -0.043424  -0.197793  -0.693324  -0.003349  -0.492254  -0.015672
    16  H    0.002999  -0.008130  -0.010985  -0.000143   0.002588   0.005115
    17  C    0.543015  -0.506941  -6.044619  -0.335547   0.000621   0.000012
    18  H    0.000223  -0.008425  -0.360047  -0.033469   0.000005   0.000000
    19  N   10.544945   0.044159  -0.359132  -0.004228  -0.000158   0.000020
    20  H    0.044159   0.486215   0.237975   0.005118   0.000038  -0.000003
    21  C   -0.359132   0.237975  20.109492   0.741198  -0.007195  -0.000286
    22  H   -0.004228   0.005118   0.741198   0.477569  -0.000061  -0.000004
    23  C   -0.000158   0.000038  -0.007195  -0.000061  12.382486   0.395201
    24  H    0.000020  -0.000003  -0.000286  -0.000004   0.395201   0.465893
    25  C    0.294265  -0.338564  -2.605125  -0.106091   0.003236   0.000067
    26  H    0.028823   0.011264  -0.014586   0.003115   0.000009   0.000000
    27  C    0.000115  -0.000068   0.045391  -0.000539  -5.895926   0.086143
    28  H    0.000073   0.000059  -0.000956   0.000064   0.097139   0.007363
    29  C   -1.693212   0.355934   0.992755   0.031589   0.000086   0.000001
    30  H    0.089378  -0.042545  -0.011794  -0.000253   0.000001  -0.000003
    31  C   -0.000323  -0.001510   0.000076  -0.000259  -0.171318  -0.102822
    32  C   -0.010322  -0.016228   0.202764  -0.000056   1.025267  -0.026537
    33  H   -0.002284   0.000065   0.023676  -0.000547  -0.004431  -0.001590
    34  C    2.574523  -0.309143  -1.164965  -0.046264  -0.000031   0.000001
    35  H    0.020393  -0.009327   0.006574   0.000146   0.000001   0.000000
    36  C    0.047227  -0.008349  -0.060235  -0.002921   0.000012   0.000000
    37  H    0.001345  -0.001624  -0.003357  -0.000161   0.000000   0.000000
    38  C   -0.224916   0.201970   0.101489   0.002464   0.000009  -0.000003
    39  H   -0.009054   0.003744   0.002283   0.000095  -0.000004  -0.000000
    40  C    0.198222  -0.046000  -0.010847  -0.003089  -0.000009  -0.000000
    41  H   -0.003541   0.002210   0.004520   0.000185  -0.000000  -0.000000
    42  Br  -0.000003  -0.000005   0.000026  -0.000005   0.223426  -0.064830
    43  H   -0.000306   0.000290  -0.000142  -0.000006  -0.073849  -0.024717
              25         26         27         28         29         30
     1  S   -1.630456   0.106510   0.000017   0.000009   3.518611  -0.506967
     2  C  -13.342066   0.528356  -0.028081  -0.000574   3.012525  -0.145217
     3  C    0.290776  -0.237874  -0.000106  -0.000012 -15.012058   0.175503
     4  C   -7.655801  -0.228545  -0.079976   0.005206   2.206140  -0.000888
     5  C    0.197308  -0.003988  -2.010231   0.120337  -0.016974   0.002111
     6  O   -0.909941  -0.001731   0.000003   0.000000   1.772476  -0.053084
     7  C   -0.005104  -0.000688   2.822985   0.162369  -0.005421  -0.000505
     8  O    0.921594   0.002008  -0.000008  -0.000000  -1.848809   0.074007
     9  C   -7.630278  -0.168529   0.020064   0.032927  -1.868955  -0.010651
    10  C   -1.695614  -0.070575   0.335766   0.041663  -0.509232  -0.001215
    11  H   -0.281494  -0.008043  -0.029901   0.040239  -0.000902   0.000100
    12  O   -0.111515   0.008513  -0.004441   0.000057  -0.067948  -0.013884
    13  C   10.031839   0.226144  -0.039983  -0.001601   1.111092  -0.004386
    14  H    0.410650   0.009539   0.009600  -0.003844  -0.040077   0.000016
    15  C    0.027698  -0.004547  -1.350465  -0.042262  -0.206650   0.005410
    16  H    0.026837   0.000517  -0.051273  -0.001288  -0.014930  -0.000450
    17  C   -3.371670  -1.002599  -0.002259   0.000148  -1.754723   0.076763
    18  H   -0.137352  -0.034735  -0.000128   0.000008  -0.086156   0.000572
    19  N    0.294265   0.028823   0.000115   0.000073  -1.693212   0.089378
    20  H   -0.338564   0.011264  -0.000068   0.000059   0.355934  -0.042545
    21  C   -2.605125  -0.014586   0.045391  -0.000956   0.992755  -0.011794
    22  H   -0.106091   0.003115  -0.000539   0.000064   0.031589  -0.000253
    23  C    0.003236   0.000009  -5.895926   0.097139   0.000086   0.000001
    24  H    0.000067   0.000000   0.086143   0.007363   0.000001  -0.000003
[...]
 .00000546,0.00000065,0.00000281,0.00008691,-0.00023522,0.00005288,0.00
 001280,0.00000606,0.00001877,-0.01193651,-0.00106235,0.00782173,-0.000
 14600,-0.00239259,-0.00137947,-0.00017662,0.00022928,-0.00005659,-0.00
 013200,0.00013773,-0.00018564,-0.00001159,-0.00000718,0.00005570,-0.00
 085491,0.00010285,-0.00107541,-0.00005339,-0.00053982,-0.00041045,0.02
 202495,0.00154040,-0.00425889,-0.00071504,-0.00216952,-0.00125919,0.10
 047029,0.02358010,-0.08984264,-0.10813927,-0.02974962,0.08777025,0.004
 01999,-0.00066447,0.00227841,0.00035154,-0.00059161,0.00058963,0.04946
 454,0.04444038,-0.05936622,0.00027093,0.00015606,-0.00039456,0.0007685
 2,0.00017268,0.00059790,0.00075420,-0.00012380,-0.00061687,-0.00004959
 ,0.00028694,0.00048915,0.00009352,-0.00010970,0.00086261,-0.00065777,0
 .00084248,-0.00026008,0.00098102,0.00048698,0.00014156,0.00005698,0.00
 002001,-0.00019024,0.00020128,0.00054105,0.00047208,0.00000216,-0.0004
 8635,-0.00010791,0.00000200,-0.00003734,0.00003560,-0.00095696,-0.0001
 4057,0.00140684,-0.00003326,0.00001433,-0.00019513,0.00010039,0.000176
 85,-0.00029224,0.00001432,-0.00004611,-0.00000534,-0.00120603,0.000690
 60,-0.00122554,0.00003654,-0.00029935,0.00003209,0.00015531,-0.0000228
 8,0.00007274,0.00000477,0.00000478,-0.00000303,-0.00013402,0.00007962,
 -0.00008240,0.00001001,-0.00001808,-0.00000778,-0.00004847,0.00023413,
 0.00024011,0.00002772,-0.00003301,0.00001403,-0.00001094,-0.00005686,-
 0.00008899,0.00003929,-0.00000330,0.00004198,-0.07661908,0.01288738,0.
 00002506,-0.00129336,0.00024574,-0.00044291,0.00009834,-0.00021310,0.0
 0003602,-0.00008642,0.00039130,-0.00005335,0.00003121,0.00007363,0.000
 08330,-0.25524029,0.06062352,-0.02785888,-0.01393788,0.01466073,-0.011
 14204,-0.30369739,0.01078813,0.05538204,-0.01539732,-0.00453724,0.0105
 1655,0.02348141,-0.06327631,0.06466846,0.00199049,0.00074267,0.0007730
 2,0.64888990,-0.00469076,0.00194843,0.00562865,0.00011858,0.00015845,-
 0.00032736,0.00632138,-0.02053285,0.03071148,0.00014237,-0.00010474,-0
 .00023914,0.00028404,-0.00038453,0.00002574,0.00124994,0.00113102,-0.0
 0113831,-0.00006633,-0.00005499,0.00011807,0.00153881,-0.00160297,0.00
 106037,0.00009436,-0.00061703,0.00025204,-0.00078537,-0.00094635,-0.00
 069905,-0.00012226,-0.00044491,-0.00048835,0.00010780,0.00000548,-0.00
 036640,-0.00029842,0.00003128,0.00021435,-0.00000230,0.00006879,0.0000
 2915,-0.00041525,-0.00072522,-0.00034076,0.00002618,0.00001630,0.00008
 154,-0.00011032,0.00009128,-0.00033752,-0.00000323,0.00000807,-0.00000
 489,-0.00060402,0.00089938,-0.00016809,-0.00003813,-0.00002353,0.00010
 066,0.00027868,0.00001460,0.00003854,-0.00002136,0.00001884,0.00002900
 ,0.00001585,-0.00020328,0.00019198,-0.00001065,-0.00001298,-0.00000127
 ,-0.00019465,-0.00012696,0.00028619,0.00000488,-0.00002774,0.00001012,
 -0.00004023,0.00008088,-0.00004173,0.00004426,0.00000134,0.00002658,0.
 01624324,-0.00702276,-0.00361254,0.00037177,-0.00033551,-0.00076671,0.
 00009665,0.00017722,-0.00002992,0.00034466,-0.00006550,-0.00005842,0.0
 0006321,0.00010461,0.00009613,0.11276880,-0.13965123,0.06599737,-0.004
 95101,0.00635588,-0.00198843,-0.03904327,-0.09598731,0.05085483,0.0149
 5456,0.00587095,-0.00642680,-0.02618944,0.01231599,0.00120659,0.000334
 13,0.00157800,0.00645790,-0.05687880,0.39530465,0.00389773,0.00567988,
 -0.00118830,0.00018756,0.00033454,-0.00059839,-0.01654931,0.02149171,-
 0.01326495,0.00014997,-0.00011449,-0.00002347,0.00061532,-0.00055340,0
 .00007522,0.00007735,-0.00118077,0.00065354,-0.00017764,0.00022987,-0.
 00023587,-0.00129328,0.00036847,-0.00122983,-0.00038917,0.00072984,-0.
 00040847,-0.00049784,-0.00100970,-0.00075770,-0.00018901,-0.00099816,-
 0.00014291,0.00019041,-0.00031664,0.00047191,-0.00018166,-0.00005427,0
 .00017860,-0.00003982,-0.00002460,0.00004704,-0.00028982,-0.00053561,-
 0.00037019,-0.00000551,0.00013391,0.00011595,0.00000620,-0.00001100,0.
 00002557,0.00000501,-0.00000588,0.00000789,-0.00104263,0.00082319,0.00
 070647,-0.00003704,-0.00018875,-0.00005792,0.00003024,0.00010443,0.000
 17904,0.00002237,-0.00000821,-0.00003201,-0.00001116,-0.00012078,-0.00
 007047,-0.00000115,0.00002618,-0.00000543,-0.00010736,-0.00020921,0.00
 009783,0.00000530,0.00002151,-0.00000555,-0.00007381,0.00003772,0.0000
 7101,-0.00006135,0.00001544,-0.00003720,-0.00177353,-0.00335235,-0.002
 98486,-0.00026775,-0.00105063,-0.00007919,0.00021931,-0.00021792,0.000
 08187,-0.00008147,0.00000246,0.00019795,0.00011684,-0.00008863,0.00002
 960,-0.08306847,0.07691363,-0.13039067,0.00990296,-0.00587190,0.008983
 45,0.11260262,0.03774626,-0.13697259,-0.01224038,-0.00089628,0.0087876
 1,0.02519100,0.01088525,-0.01238534,0.00095524,0.00641246,-0.00019794,
 -0.06700370,-0.28984646,0.49323648,0.00118050,0.00025055,-0.00064027,0
 .00011072,0.00005507,-0.00019228,-0.00311745,0.00350763,-0.00146559,-0
 .00002941,0.00001533,0.00002093,0.00003285,-0.00000355,0.00010399,-0.0
 0031465,-0.00018137,0.00011981,0.00004332,-0.00003801,-0.00004264,-0.0
 0031341,0.00041515,-0.00060300,0.00014065,-0.00001576,-0.00000843,-0.0
 0013584,0.00003882,0.00002262,0.00005141,-0.00002903,-0.00002174,-0.00
 004701,0.00003344,0.00000359,0.00006157,-0.00001506,-0.00000706,0.0000
 0581,0.00001158,0.00000407,0.00007153,-0.00004824,0.00003153,-0.000005
 27,0.00002230,-0.00001187,-0.00002641,-0.00002516,-0.00004779,-0.00001
 299,0.00000872,0.00000445,-0.00021110,0.00014705,0.00028915,-0.0000110
 4,-0.00004605,0.00000569,0.00000525,-0.00007713,0.00003898,-0.00000998
 ,0.00001828,0.00001972,0.00002886,0.00003414,-0.00007266,0.00000814,0.
 00000432,0.00000259,-0.00004818,-0.00004903,0.00003120,0.00000473,0.00
 000563,-0.00000445,0.00006538,0.00009552,0.00001185,-0.00003920,-0.000
 00113,-0.00005340,-0.00156814,0.00021662,-0.00018081,0.00004626,-0.000
 14419,-0.00013155,-0.00009641,0.00003261,0.00007109,0.00006735,0.00004
 754,0.00006125,0.00002346,-0.00007829,-0.00008767,0.00710098,0.0159439
 6,-0.01936178,0.00051340,-0.00081581,-0.00011172,0.00158398,-0.0186488
 6,0.02191411,0.00042873,-0.00037553,-0.00083876,-0.00478188,0.00039916
 ,0.00288422,-0.00010356,-0.00092614,0.00111681,-0.06254766,-0.02091633
 ,0.03128953,0.06179606,-0.00095890,0.00065604,0.00053259,-0.00012496,-
 0.00014984,0.00032083,0.00335385,0.00345548,0.00368905,-0.00006280,0.0
 0002057,0.00008650,-0.00000685,0.00001936,0.00004225,0.00030626,0.0000
 2179,-0.00010845,-0.00000756,-0.00003267,-0.00003546,0.00024866,-0.000
 49255,0.00031912,0.00022905,-0.00007421,0.00019657,-0.00013211,-0.0000
 3651,0.00030281,-0.00001618,-0.00019590,-0.00015112,-0.00009364,0.0001
 5743,-0.00025347,0.00000719,0.00006592,-0.00003220,-0.00000573,-0.0000
 5889,-0.00005777,0.00001564,0.00011164,-0.00004998,0.00004126,-0.00000
 961,-0.00005026,0.00002691,0.00000096,0.00008981,-0.00000198,-0.000002
 59,-0.00000587,0.00014512,-0.00024915,-0.00037379,0.00004896,0.0000455
 0,0.00001412,-0.00004290,0.00006490,-0.00006623,0.00001634,-0.00001462
 ,-0.00001568,0.00006380,-0.00002244,-0.00004832,0.00000852,0.00000414,
 0.00000335,0.00003735,0.00004741,-0.00008009,-0.00001607,0.00000723,0.
 00000541,0.00002855,0.00002660,-0.00004108,-0.00002068,0.00000901,-0.0
 0000169,0.00027481,-0.00042658,-0.00088996,-0.00014457,-0.00059150,-0.
 00043084,-0.00007948,0.00006516,-0.00000967,-0.00006999,0.00003002,0.0
 0015240,-0.00004113,-0.00010063,-0.00014812,-0.00382245,-0.00571603,0.
 01104961,-0.00030749,-0.00194968,-0.00225676,0.00129973,0.00148876,0.0
 0189178,-0.00075415,-0.00206429,-0.00210040,0.00023247,0.00486513,0.00
 299758,0.00012265,-0.00006653,0.00008893,-0.02096152,-0.15732459,0.144
 65450,0.02109445,0.15845230,0.00103413,-0.00005888,0.00018060,0.000044
 20,-0.00002187,-0.00012557,-0.00186668,0.00400474,0.00330588,-0.000012
 10,0.00003748,0.00006643,0.00001826,-0.00001934,0.00002973,-0.00029316
 ,-0.00006955,-0.00001482,0.00000551,-0.00000663,-0.00001686,-0.0001442
 3,0.00007430,-0.00027723,-0.00000734,-0.00000926,-0.00000566,0.0000451
 3,0.00006283,0.00008706,0.00002672,0.00013434,-0.00000617,0.00000724,0
 .00001514,0.00000244,-0.00001015,0.00002704,0.00000217,-0.00000077,-0.
 00000999,-0.00000110,-0.00003857,0.00001826,-0.00000930,-0.00000427,-0
 .00002326,-0.00001939,0.00001380,-0.00000072,0.00001003,-0.00000839,0.
 00000335,0.00000407,-0.00018468,0.00016437,0.00014210,-0.00000866,-0.0
 0005272,0.00000487,-0.00001445,-0.00000012,0.00001794,0.00000388,0.000
 00118,0.00000180,0.00000936,-0.00001275,-0.00000519,-0.00000358,0.0000
 0119,-0.00000378,-0.00002469,-0.00002246,0.00001696,0.00000752,0.00000
 593,-0.00000611,0.00006897,0.00002177,0.00001215,-0.00000007,0.0000042
 2,0.00001101,-0.00000884,-0.00102237,-0.00000100,-0.00011518,-0.000442
 46,-0.00046162,-0.00006345,0.00004996,0.00000210,0.00010775,0.00012148
 ,0.00006793,0.00003663,-0.00001453,-0.00002669,0.00346400,0.00640688,-
 0.00512752,-0.00058403,-0.00210022,-0.00136044,-0.00079955,0.00763707,
 -0.00501026,-0.00018958,-0.00229427,-0.00139884,0.00310939,0.00285754,
 0.00343528,-0.00006120,0.00037485,-0.00034622,0.03056935,0.14343450,-0
 .21248293,-0.03415139,-0.15922113,0.21930469,0.00028177,0.00011970,0.0
 0049349,0.00004965,-0.00010804,0.00022000,-0.00008495,-0.00008252,-0.0
 0001411,-0.00026851,-0.00001119,-0.00002578,-0.00104816,0.00191934,-0.
 00121776,-0.00017610,-0.00010603,-0.00010440,0.00337015,0.00080085,0.0
 0048049,-0.00002731,0.00004516,-0.00022894,0.00155814,-0.00110235,0.00
 084300,-0.00194689,0.00074270,0.00011917,0.00007947,0.00003885,-0.0000
 2246,-0.00036807,0.00075073,-0.00065634,-0.00002950,0.00009727,-0.0000
 2565,0.00003884,-0.00000151,-0.00007422,0.00144641,-0.00142202,-0.0002
 3263,-0.00003450,0.00001651,-0.00006650,-0.00002421,-0.00001582,0.0000
 2576,-0.00001594,-0.00000336,-0.00000131,-0.00015856,-0.00003243,-0.00
 024298,0.00014896,-0.00001453,0.00010248,-0.00005764,-0.00001612,-0.00
 007067,-0.00000823,-0.00001407,0.00001525,-0.00665311,0.01060606,-0.00
 122771,-0.00012128,-0.00119388,-0.00077240,-0.00003064,0.00001712,0.00
 000346,-0.00000840,-0.00000622,0.00000036,-0.02270796,0.02744948,-0.00
 376480,-0.00068382,-0.00056152,-0.00076836,0.00006741,-0.00004785,0.00
 003744,0.00000543,0.00001158,0.00003251,-0.07882940,0.05830850,-0.0032
 8032,0.00053058,-0.00238899,0.00575927,-0.00078069,0.00087552,-0.00029
 746,-0.00000583,-0.00000510,-0.00008123,0.00000815,0.00001810,0.000007
 39,-0.00003903,-0.00002032,-0.00004474,0.00004264,0.00017471,0.0001325
 5,-0.00008155,-0.00006280,-0.00009890,0.00001410,0.00004948,0.00008571
 ,0.00002221,-0.00001840,-0.00007795,0.00001848,0.00005269,0.00003277,0
 .10689348,-0.00030268,-0.00015355,-0.00050182,-0.00006062,0.00011286,-
 0.00023763,0.00008755,0.00008262,0.00000167,0.00030151,0.00001152,0.00
 003175,0.00135733,-0.00218034,-0.00049531,0.00018440,0.00011743,0.0001
 0529,-0.00323348,0.00199368,0.00512030,0.00003963,-0.00003419,0.000232
 05,-0.00162055,0.00108861,-0.00093158,0.00209804,-0.00072223,-0.000138
 12,-0.00003314,0.00003337,0.00015427,0.00038688,-0.00072985,0.00069220
 ,0.00003078,-0.00009587,0.00003734,-0.00003912,-0.00000546,0.00007394,
 -0.00190752,0.00110099,-0.00036894,-0.00002176,0.00001674,0.00008137,0
 .00002738,0.00001799,-0.00002420,0.00001667,0.00000329,0.00000111,0.00
 016634,0.00003666,0.00025705,-0.00015572,0.00001312,-0.00010805,0.0000
 5967,0.00001608,0.00007065,0.00001022,0.00001378,-0.00001678,0.0250061
 3,-0.02299519,0.00401339,-0.00064675,-0.00078924,-0.00085404,0.0000367
 6,-0.00001660,-0.00000744,0.00000894,0.00000617,-0.00000003,0.01411153
 ,-0.01124453,0.00226664,-0.00113652,-0.00035820,-0.00078708,-0.0000571
 1,0.00006816,-0.00003940,-0.00001034,-0.00001370,-0.00003684,0.0577073
 9,-0.08518865,0.01231088,0.00126051,0.00413318,-0.00093682,0.00044333,
 -0.00056995,0.00020238,0.00002335,0.00002253,0.00008025,-0.00000625,-0
 .00001946,-0.00000591,0.00010085,-0.00001093,0.00005599,-0.00002856,-0
 .00021961,-0.00011072,0.00005451,0.00006142,0.00011612,-0.00002763,-0.
 00006298,-0.00011839,-0.00001392,-0.00000421,0.00009520,-0.00000102,-0
 .00005110,-0.00003882,-0.09514530,0.11732807,0.00005798,0.00000858,0.0
 0005493,0.00001275,-0.00001351,0.00002265,-0.00001496,-0.00001356,-0.0
 0001243,-0.00004483,-0.00000250,-0.00000501,-0.00099270,-0.00046912,0.
 00056579,-0.00003312,-0.00001412,-0.00001019,0.00371929,0.00189094,-0.
 00065690,-0.00001132,0.00000555,-0.00002536,0.00022874,-0.00018527,0.0
 0012799,-0.00029855,0.00022344,-0.00001410,-0.00002581,0.00001022,0.00
 003283,-0.00005418,0.00010478,-0.00007622,-0.00001035,0.00001603,-0.00
 001187,0.00000506,0.00000552,-0.00001054,-0.00015396,-0.00049309,-0.00
 006904,0.00003454,-0.00003156,0.00002442,-0.00000518,-0.00000277,0.000
 00239,-0.00000267,0.,-0.00000003,-0.00003120,-0.00000074,-0.00001996,0
 .00002568,-0.00000301,0.00001473,-0.00000582,-0.00000694,-0.00000885,-
 0.00000382,-0.00000162,0.00000335,-0.01514731,0.01632962,0.00110707,-0
 .00124424,-0.00037578,-0.00072683,-0.00000628,0.00000064,0.00000492,-0
 .00000112,-0.00000056,-0.00000024,0.01035431,-0.01052438,0.00471512,-0
 .00020584,-0.00136261,-0.00061370,-0.00000702,-0.00000562,0.00002309,0
 .00000655,-0.00000199,0.00000471,-0.00296566,0.01224271,-0.02928710,0.
 00196365,0.00275361,-0.00038912,0.00032808,-0.00037369,0.00005471,-0.0
 0000695,0.00000365,0.00000212,-0.00000116,0.00000367,0.00000094,0.0000
 0160,-0.00001124,0.00001800,0.00003821,0.00002278,-0.00001504,0.000042
 41,-0.00000389,-0.00002268,0.00000289,0.00000605,0.00002848,0.00001819
 ,0.00000446,-0.00002013,-0.00000809,-0.00000084,0.00000434,0.00494525,
 -0.02020770,0.02520410,-0.00016893,0.00008739,-0.00008508,-0.00003478,
 0.00000020,0.00000535,-0.00000620,0.00000464,-0.00001695,0.00005917,-0
 .00001636,-0.00002700,0.00290014,-0.01555626,0.01644226,0.00008829,0.0
 0000630,0.00002458,-0.05412141,-0.00708687,0.02234116,0.00004593,-0.00
 003700,0.00005186,-0.00018051,0.00007287,0.00010667,0.00008402,0.00041
 001,-0.00015168,0.00018840,0.00005432,0.00007474,0.00012789,-0.0000195
 2,-0.00007143,0.00002258,-0.00001679,0.00002602,-0.00000343,-0.0000032
 4,0.00000506,-0.00028878,-0.00324975,-0.00013299,-0.00078353,0.0009189
 2,-0.00011439,0.00000543,-0.00000139,0.00000506,0.00000214,0.00000165,
 -0.00000088,0.00005982,-0.00004401,-0.00001374,-0.00002548,0.00001648,
 -0.00001275,0.00000265,0.00000388,0.00000023,0.00000487,0.00000348,-0.
 00000403,0.00572713,0.01417789,-0.01662004,-0.00074800,-0.00169587,-0.
 00128993,0.00000949,0.00000780,-0.00001789,-0.00000206,0.00000264,0.00
 000123,-0.00168029,0.00044072,-0.00010608,-0.00015662,-0.00026172,-0.0
 0023870,0.00002619,0.00010310,-0.00000734,-0.00002515,0.00000661,-0.00
 003984,0.00030873,0.00507150,0.00126622,-0.00214195,0.00209665,0.00507
 831,0.00005493,-0.00079715,0.00109264,0.00006865,0.00003302,-0.0000337
 9,-0.00000602,0.00000646,-0.00000136,0.00011991,-0.00006880,0.00013697
 ,-0.00002363,0.00003067,0.00001984,-0.00003316,0.00015203,0.00015665,-
 0.00000729,-0.00032635,-0.00034182,0.00004787,-0.00000359,-0.00000413,
 0.00003016,0.00001687,-0.00000962,-0.00038561,0.00092828,-0.00050307,0
 .05083845,-0.00022389,0.00023216,-0.00001216,-0.00003798,-0.00003725,0
 .00008311,0.00009718,-0.00003378,-0.00007110,-0.00002480,-0.00001014,-
 0.00004532,0.00190434,0.00397299,-0.00227089,0.00010753,-0.00003098,0.
 00000675,-0.00872961,-0.16874214,0.14427491,0.00006467,-0.00006802,0.0
 0002082,0.00005909,0.00008537,0.00015818,-0.00024389,0.00017291,0.0000
 4673,0.00000764,0.00003687,0.00004057,-0.00007839,-0.00003317,-0.00004
 913,0.00000649,-0.00000051,0.00000813,0.00000053,0.00000345,-0.0000076
 6,-0.00026571,-0.00093892,-0.00233893,-0.00004696,-0.00006475,0.000225
 87,-0.00000458,-0.00000723,0.00001159,-0.00000020,0.00000176,-0.000000
 71,0.00005708,-0.00010572,-0.00008655,0.00001887,0.00003306,0.00000766
 ,-0.00001075,-0.00000137,-0.00000869,-0.00000029,0.00000134,-0.0000004
 4,-0.00288827,-0.01021480,0.01721411,-0.00138232,-0.00120605,-0.001907
 71,0.00000380,0.00000810,-0.00002221,-0.00000802,0.00000273,0.00000322
 ,-0.00023079,-0.00011608,-0.00088034,-0.00027853,-0.00030489,-0.000205
 24,0.00003961,0.00010061,-0.00010110,-0.00002968,0.00003056,0.00000386
 ,0.00522376,0.00131087,0.00170817,0.00193883,0.00296533,0.00166636,0.0
 0018366,0.00010051,-0.00005645,0.00012062,-0.00001979,0.00002204,-0.00
 000449,0.00001100,0.00000314,0.00023317,-0.00009972,0.00008170,0.00001
 232,0.00002389,0.00004614,-0.00026234,0.00006395,0.00039829,-0.0001361
 9,-0.00030602,-0.00042208,-0.00004569,0.00001778,-0.00005082,0.0000378
 5,0.00001453,-0.00001707,0.00028604,-0.00081238,0.00047385,0.00453030,
 0.17396395,-0.00006283,0.00009034,0.00002553,-0.00000644,-0.00001593,0
 .00003949,0.00005366,0.00000463,-0.00001838,-0.00002692,-0.00002909,-0
 .00001568,0.00009112,0.01416681,-0.01120559,0.00002278,-0.00001766,-0.
 00000228,0.02217453,0.14424935,-0.20605674,0.00001963,-0.00002254,-0.0
 0000507,0.00013605,0.00015611,0.00003285,0.00004723,-0.00016979,0.0004
 1023,-0.00015803,-0.00000715,0.00005122,-0.00010167,-0.00006850,0.0000
 1781,-0.00000206,0.00000440,-0.00000586,0.00000099,0.00000791,-0.00000
 700,-0.00271186,-0.00092209,-0.00116203,0.00081035,-0.00063235,0.00042
 855,-0.00000349,-0.00000442,0.00000423,-0.00000083,0.00000079,-0.00000
 019,0.00001640,-0.00004490,-0.00004071,0.00001680,0.00001354,0.0000111
 1,-0.00000625,-0.00000314,-0.00000598,-0.00000303,0.00000170,0.0000016
 9,0.00205718,0.00012388,0.00176073,-0.00165510,-0.00147632,-0.00115376
 ,-0.00000139,0.00000572,-0.00000570,-0.00000327,0.00000084,0.00000120,
 -0.00038499,-0.00078612,-0.00005749,-0.00027809,-0.00020036,-0.0002888
 4,-0.00000010,0.00000982,0.00001970,-0.00001502,0.00000510,-0.00000299
 ,0.00187354,0.00218450,0.00355238,0.00520205,0.00084114,0.00101148,-0.
 00006389,0.00070819,-0.00056135,0.00002890,-0.00000180,0.00002697,-0.0
 0000130,0.00000123,-0.00000238,0.00005954,0.00001992,0.00001300,-0.000
 00360,-0.00005366,-0.00001183,0.00005873,0.00004907,-0.00001982,-0.000
 23647,-0.00022230,-0.00008094,-0.00000953,0.00002592,-0.00000474,-0.00
 000427,-0.00000802,-0.00000293,0.00006128,-0.00003418,-0.00002134,-0.0
 2699033,-0.15795061,0.21333145\\0.00001702,-0.00004786,-0.00004143,0.0
 0000871,0.00000397,-0.00001018,-0.00000953,0.00000390,0.00000177,-0.00
 000848,0.00001287,-0.00002263,-0.00000672,-0.00000524,0.00000433,0.000
 00524,0.00000209,0.00000012,0.00000125,0.00000685,-0.00000042,-0.00000
 221,-0.00000745,0.00001007,-0.00000866,-0.00000255,0.00001294,-0.00000
 337,-0.00000432,0.00000113,0.00000475,-0.00000029,0.00000426,0.0000037
 6,0.00000197,-0.00000529,-0.00000419,-0.00000110,0.00000911,-0.0000021
 8,-0.00000239,-0.00000075,0.00000730,-0.00000306,-0.00000092,-0.000000
 48,0.00000557,-0.00000565,-0.00000701,-0.00000248,-0.00001542,0.000002
 87,0.00000163,-0.00000051,-0.00002984,0.00001665,0.00004756,0.00002081
 ,0.00001363,-0.00000264,0.00001264,0.00000172,0.00001239,-0.00000135,0
 .00000013,-0.00000481,0.00000559,0.00000009,-0.00000130,-0.00000366,0.
 00000223,0.00000253,-0.00001035,-0.00001032,0.00000774,0.00000344,-0.0
 0000105,-0.00000093,0.00000373,-0.00000080,0.,-0.00000037,0.00000400,-
 0.00000228,-0.00000454,0.00000550,-0.00001298,0.00000078,-0.00000524,0
 .00000093,-0.00000267,0.00000418,0.00000262,-0.00000444,0.00000305,0.0
 0000322,0.00000103,0.00000280,-0.00000548,0.00000212,-0.00000456,0.000
 00391,0.00000448,0.00000192,-0.00000439,0.00001282,0.00000030,-0.00000
 261,-0.00000379,0.00000740,0.00000119,0.00000549,-0.00000808,0.0000077
 1,-0.00000316,0.00000061,0.00000265,-0.00001025,-0.00000132,0.00000589
 ,0.00000246,0.00000214,-0.00000322,0.00000223,0.00000385,0.00000316,-0
 .00000127,-0.00000088,-0.00000139\\\@


 IMAGINATION WILL OFTEN CARRY US TO WORLDS THAT NEVER WERE.
 BUT WITHOUT IT, WE GO NOWHERE. -- CARL SAGAN (COSMOS)
 Job cpu time:       1 days  3 hours 27 minutes  1.3 seconds.
 Elapsed time:       0 days  0 hours 26 minutes 12.7 seconds.
 File lengths (MBytes):  RWF=   2544 Int=      0 D2E=      0 Chk=     56 Scr=     16
 Normal termination of Gaussian 16 at Tue Nov 18 02:34:48 2025.
