 Entering Gaussian System, Link 0=g16
 Input=NEBP0016.gjf
 Output=NEBP0016.log
 Initial command:
 /usr/local/g16/l1.exe "/dados_01/scratch/Gau-2523505.inp" -scrdir="/dados_01/scratch/"
 Entering Link 1 = /usr/local/g16/l1.exe PID=   2523506.
  
 Copyright (c) 1988-2017, Gaussian, Inc.  All Rights Reserved.
  
 This is part of the Gaussian(R) 16 program.  It is based on
 the Gaussian(R) 09 system (copyright 2009, Gaussian, Inc.),
 the Gaussian(R) 03 system (copyright 2003, Gaussian, Inc.),
 the Gaussian(R) 98 system (copyright 1998, Gaussian, Inc.),
 the Gaussian(R) 94 system (copyright 1995, Gaussian, Inc.),
 the Gaussian 92(TM) system (copyright 1992, Gaussian, Inc.),
 the Gaussian 90(TM) system (copyright 1990, Gaussian, Inc.),
 the Gaussian 88(TM) system (copyright 1988, Gaussian, Inc.),
 the Gaussian 86(TM) system (copyright 1986, Carnegie Mellon
 University), and the Gaussian 82(TM) system (copyright 1983,
 Carnegie Mellon University). Gaussian is a federally registered
 trademark of Gaussian, Inc.
  
 This software contains proprietary and confidential information,
 including trade secrets, belonging to Gaussian, Inc.
  
 This software is provided under written license and may be
 used, copied, transmitted, or stored only in accord with that
 written license.
  
 The following legend is applicable only to US Government
 contracts under FAR:
  
                    RESTRICTED RIGHTS LEGEND
  
 Use, reproduction and disclosure by the US Government is
 subject to restrictions as set forth in subparagraphs (a)
 and (c) of the Commercial Computer Software - Restricted
 Rights clause in FAR 52.227-19.
  
 Gaussian, Inc.
 340 Quinnipiac St., Bldg. 40, Wallingford CT 06492
  
  
 ---------------------------------------------------------------
 Warning -- This program may not be used in any manner that
 competes with the business of Gaussian, Inc. or will provide
 assistance to any competitor of Gaussian, Inc.  The licensee
 of this program is prohibited from giving any competitor of
 Gaussian, Inc. access to this program.  By using this program,
 the user acknowledges that Gaussian, Inc. is engaged in the
 business of creating and licensing software in the field of
 computational chemistry and represents and warrants to the
 licensee that it is not a competitor of Gaussian, Inc. and that
 it will not use this program in any manner prohibited above.
 ---------------------------------------------------------------
  

 Cite this work as:
 Gaussian 16, Revision B.01,
 M. J. Frisch, G. W. Trucks, H. B. Schlegel, G. E. Scuseria, 
 M. A. Robb, J. R. Cheeseman, G. Scalmani, V. Barone, 
 G. A. Petersson, H. Nakatsuji, X. Li, M. Caricato, A. V. Marenich, 
 J. Bloino, B. G. Janesko, R. Gomperts, B. Mennucci, H. P. Hratchian, 
 J. V. Ortiz, A. F. Izmaylov, J. L. Sonnenberg, D. Williams-Young, 
 F. Ding, F. Lipparini, F. Egidi, J. Goings, B. Peng, A. Petrone, 
 T. Henderson, D. Ranasinghe, V. G. Zakrzewski, J. Gao, N. Rega, 
 G. Zheng, W. Liang, M. Hada, M. Ehara, K. Toyota, R. Fukuda, 
 J. Hasegawa, M. Ishida, T. Nakajima, Y. Honda, O. Kitao, H. Nakai, 
 T. Vreven, K. Throssell, J. A. Montgomery, Jr., J. E. Peralta, 
 F. Ogliaro, M. J. Bearpark, J. J. Heyd, E. N. Brothers, K. N. Kudin, 
 V. N. Staroverov, T. A. Keith, R. Kobayashi, J. Normand, 
 K. Raghavachari, A. P. Rendell, J. C. Burant, S. S. Iyengar, 
 J. Tomasi, M. Cossi, J. M. Millam, M. Klene, C. Adamo, R. Cammi, 
 J. W. Ochterski, R. L. Martin, K. Morokuma, O. Farkas, 
 J. B. Foresman, and D. J. Fox, Gaussian, Inc., Wallingford CT, 2016.
 
 ******************************************
 Gaussian 16:  ES64L-G16RevB.01 20-Dec-2017
                 7-Oct-2025 
 ******************************************
 %nprocs=16
 Will use up to   16 processors via shared memory.
 %mem=40GB
 %chk=NEBP0016.chk
 ----------------------------------------------------------------------
 # opt freq=noraman M08HX/6-311++G** scf=xqc Empiricaldispersion=pfd In
 t(Grid=ultraFine)
 ----------------------------------------------------------------------
 1/18=20,19=15,26=4,38=1/1,3;
 2/9=110,12=2,17=6,18=5,40=1/2;
 3/5=4,6=6,7=1111,11=2,25=1,30=1,71=1,74=-74,75=-5,124=11/1,2,3;
 4//1;
 5/5=2,8=3,13=1,38=5/2,8;
 6/7=2,8=2,9=2,10=2,28=1/1;
 7//1,2,3,16;
 1/18=20,19=15,26=4/3(2);
 2/9=110/2;
 99//99;
 2/9=110/2;
 3/5=4,6=6,7=1111,11=2,25=1,30=1,71=1,74=-74,75=-5,124=11/1,2,3;
 4/5=5,16=3,69=1/1;
 5/5=2,8=3,13=1,38=5/2,8;
 7//1,2,3,16;
 1/18=20,19=15,26=4/3(-5);
 2/9=110/2;
 6/7=2,8=2,9=2,10=2,19=2,28=1/1;
 99/9=1/99;
 --------
 NEBP0016
 --------
 Symbolic Z-matrix:
 Charge =  0 Multiplicity = 1
 Br                    5.2942    3.2964    2.6925 
 S                    -3.2381    4.8985    0.8789 
 C                    -2.2515    4.1776    3.3184 
 C                    -3.796     3.2962    0.4305 
 C                    -1.0913    3.9784    4.0993 
 C                     3.8421    4.3006    4.9595 
 O                    -4.3466    5.6015    1.4334 
 C                     5.0905    3.8855    4.4857 
 O                    -2.5212    5.4604   -0.2237 
 C                     0.2631    4.3323    3.5909 
 C                     1.3994    4.3383    4.5302 
 H                     1.2287    4.3753    5.4438 
 O                     0.4548    4.6258    2.4138 
 C                    -1.2422    3.4343    5.3728 
 H                    -0.4845    3.2841    5.8906 
 C                     2.6463    4.2923    4.1168 
 H                     2.7817    4.2508    3.1975 
 C                    -3.5986    3.3603    5.1359 
 H                    -4.4374    3.1709    5.4896 
 N                    -2.1075    4.6802    2.0205 
 H                    -1.3079    4.905     1.7972 
 C                    -2.4769    3.1128    5.889 
 H                    -2.5508    2.7325    6.7349 
 C                     6.2181    3.8901    5.2808 
 H                     7.0344    3.6048    4.9386 
 C                    -3.5026    3.8855    3.8657 
 H                    -4.2737    4.0455    3.3712 
 C                     4.9152    4.7458    7.0884 
 H                     4.8534    5.0371    7.9695 
 C                    -2.9494    2.4729   -0.2855 
 H                    -2.0962    2.7574   -0.5224 
 C                     6.1244    4.321     6.5869 
 H                     6.8794    4.3247    7.1298 
 C                     3.7965    4.7398    6.2871 
 H                     2.9876    5.0356    6.6377 
 C                    -5.069     2.8834    0.7661 
 H                    -5.6367    3.4463    1.2416 
 C                    -4.6635    0.8052   -0.2969 
 H                    -4.9528   -0.046    -0.5362 
 C                    -3.4009    1.2142   -0.6418 
 H                    -2.8453    0.6422   -1.1189 
 C                    -5.4906    1.6262    0.388 
 H                    -6.3484    1.3417    0.6051 
 

 GradGradGradGradGradGradGradGradGradGradGradGradGradGradGradGradGradGrad
 Berny optimization.
 Initialization pass.
                           ----------------------------
                           !    Initial Parameters    !
                           ! (Angstroms and Degrees)  !
 --------------------------                            --------------------------
 ! Name  Definition              Value          Derivative Info.                !
 --------------------------------------------------------------------------------
 ! R1    R(1,8)                  1.8984         estimate D2E/DX2                !
 ! R2    R(2,4)                  1.7549         estimate D2E/DX2                !
 ! R3    R(2,7)                  1.4249         estimate D2E/DX2                !
 ! R4    R(2,9)                  1.4302         estimate D2E/DX2                !
 ! R5    R(2,20)                 1.6215         estimate D2E/DX2                !
 ! R6    R(3,5)                  1.4126         estimate D2E/DX2                !
 ! R7    R(3,20)                 1.3992         estimate D2E/DX2                !
 ! R8    R(3,26)                 1.3965         estimate D2E/DX2                !
 ! R9    R(4,30)                 1.381          estimate D2E/DX2                !
 ! R10   R(4,36)                 1.3797         estimate D2E/DX2                !
 ! R11   R(5,10)                 1.4893         estimate D2E/DX2                !
 ! R12   R(5,14)                 1.3931         estimate D2E/DX2                !
 ! R13   R(6,8)                  1.3983         estimate D2E/DX2                !
 ! R14   R(6,16)                 1.4629         estimate D2E/DX2                !
 ! R15   R(6,34)                 1.3991         estimate D2E/DX2                !
 ! R16   R(8,24)                 1.3797         estimate D2E/DX2                !
 ! R17   R(10,11)                1.4743         estimate D2E/DX2                !
 ! R18   R(10,13)                1.2282         estimate D2E/DX2                !
 ! R19   R(11,12)                0.9301         estimate D2E/DX2                !
 ! R20   R(11,16)                1.3144         estimate D2E/DX2                !
 ! R21   R(14,15)                0.9299         estimate D2E/DX2                !
 ! R22   R(14,22)                1.3763         estimate D2E/DX2                !
 ! R23   R(16,17)                0.9301         estimate D2E/DX2                !
 ! R24   R(18,19)                0.9298         estimate D2E/DX2                !
 ! R25   R(18,22)                1.3735         estimate D2E/DX2                !
 ! R26   R(18,26)                1.3778         estimate D2E/DX2                !
 ! R27   R(20,21)                0.8601         estimate D2E/DX2                !
 ! R28   R(22,23)                0.9304         estimate D2E/DX2                !
 ! R29   R(24,25)                0.93           estimate D2E/DX2                !
 ! R30   R(24,32)                1.3785         estimate D2E/DX2                !
 ! R31   R(26,27)                0.9299         estimate D2E/DX2                !
 ! R32   R(28,29)                0.9301         estimate D2E/DX2                !
 ! R33   R(28,32)                1.3763         estimate D2E/DX2                !
 ! R34   R(28,34)                1.3761         estimate D2E/DX2                !
 ! R35   R(30,31)                0.9301         estimate D2E/DX2                !
 ! R36   R(30,40)                1.3839         estimate D2E/DX2                !
 ! R37   R(32,33)                0.9299         estimate D2E/DX2                !
 ! R38   R(34,35)                0.9299         estimate D2E/DX2                !
 ! R39   R(36,37)                0.9302         estimate D2E/DX2                !
 ! R40   R(36,42)                1.3789         estimate D2E/DX2                !
 ! R41   R(38,39)                0.9303         estimate D2E/DX2                !
 ! R42   R(38,40)                1.3713         estimate D2E/DX2                !
 ! R43   R(38,42)                1.3517         estimate D2E/DX2                !
 ! R44   R(40,41)                0.9292         estimate D2E/DX2                !
 ! R45   R(42,43)                0.9295         estimate D2E/DX2                !
 ! A1    A(4,2,7)              107.6122         estimate D2E/DX2                !
 ! A2    A(4,2,9)              108.729          estimate D2E/DX2                !
 ! A3    A(4,2,20)             106.179          estimate D2E/DX2                !
 ! A4    A(7,2,9)              119.7439         estimate D2E/DX2                !
 ! A5    A(7,2,20)             109.5647         estimate D2E/DX2                !
 ! A6    A(9,2,20)             104.251          estimate D2E/DX2                !
 ! A7    A(5,3,20)             118.6127         estimate D2E/DX2                !
 ! A8    A(5,3,26)             119.3183         estimate D2E/DX2                !
 ! A9    A(20,3,26)            122.0639         estimate D2E/DX2                !
 ! A10   A(2,4,30)             118.8096         estimate D2E/DX2                !
 ! A11   A(2,4,36)             120.2884         estimate D2E/DX2                !
 ! A12   A(30,4,36)            120.8881         estimate D2E/DX2                !
 ! A13   A(3,5,10)             121.6467         estimate D2E/DX2                !
 ! A14   A(3,5,14)             118.1293         estimate D2E/DX2                !
 ! A15   A(10,5,14)            120.224          estimate D2E/DX2                !
 ! A16   A(8,6,16)             122.2016         estimate D2E/DX2                !
 ! A17   A(8,6,34)             116.3468         estimate D2E/DX2                !
 ! A18   A(16,6,34)            121.4489         estimate D2E/DX2                !
 ! A19   A(1,8,6)              120.5282         estimate D2E/DX2                !
 ! A20   A(1,8,24)             117.2365         estimate D2E/DX2                !
 ! A21   A(6,8,24)             122.2344         estimate D2E/DX2                !
 ! A22   A(5,10,11)            118.973          estimate D2E/DX2                !
 ! A23   A(5,10,13)            121.728          estimate D2E/DX2                !
 ! A24   A(11,10,13)           119.2977         estimate D2E/DX2                !
 ! A25   A(10,11,12)           118.9801         estimate D2E/DX2                !
 ! A26   A(10,11,16)           122.0474         estimate D2E/DX2                !
 ! A27   A(12,11,16)           118.9725         estimate D2E/DX2                !
 ! A28   A(5,14,15)            118.937          estimate D2E/DX2                !
 ! A29   A(5,14,22)            122.0916         estimate D2E/DX2                !
 ! A30   A(15,14,22)           118.9714         estimate D2E/DX2                !
 ! A31   A(6,16,11)            126.4437         estimate D2E/DX2                !
 ! A32   A(6,16,17)            116.7813         estimate D2E/DX2                !
 ! A33   A(11,16,17)           116.775          estimate D2E/DX2                !
 ! A34   A(19,18,22)           119.4349         estimate D2E/DX2                !
 ! A35   A(19,18,26)           119.4179         estimate D2E/DX2                !
 ! A36   A(22,18,26)           121.1472         estimate D2E/DX2                !
 ! A37   A(2,20,3)             129.0251         estimate D2E/DX2                !
 ! A38   A(2,20,21)            115.4835         estimate D2E/DX2                !
 ! A39   A(3,20,21)            115.4914         estimate D2E/DX2                !
 ! A40   A(14,22,18)           119.0044         estimate D2E/DX2                !
 ! A41   A(14,22,23)           120.5125         estimate D2E/DX2                !
 ! A42   A(18,22,23)           120.483          estimate D2E/DX2                !
 ! A43   A(8,24,25)            120.2843         estimate D2E/DX2                !
 ! A44   A(8,24,32)            119.438          estimate D2E/DX2                !
 ! A45   A(25,24,32)           120.2777         estimate D2E/DX2                !
 ! A46   A(3,26,18)            120.2286         estimate D2E/DX2                !
 ! A47   A(3,26,27)            119.9011         estimate D2E/DX2                !
 ! A48   A(18,26,27)           119.8703         estimate D2E/DX2                !
 ! A49   A(29,28,32)           120.0174         estimate D2E/DX2                !
 ! A50   A(29,28,34)           119.9337         estimate D2E/DX2                !
 ! A51   A(32,28,34)           120.0489         estimate D2E/DX2                !
 ! A52   A(4,30,31)            120.8014         estimate D2E/DX2                !
 ! A53   A(4,30,40)            118.4055         estimate D2E/DX2                !
 ! A54   A(31,30,40)           120.793          estimate D2E/DX2                !
 ! A55   A(24,32,28)           120.0956         estimate D2E/DX2                !
 ! A56   A(24,32,33)           119.9463         estimate D2E/DX2                !
 ! A57   A(28,32,33)           119.9581         estimate D2E/DX2                !
 ! A58   A(6,34,28)            121.8311         estimate D2E/DX2                !
 ! A59   A(6,34,35)            119.0755         estimate D2E/DX2                !
 ! A60   A(28,34,35)           119.0935         estimate D2E/DX2                !
 ! A61   A(4,36,37)            120.4242         estimate D2E/DX2                !
 ! A62   A(4,36,42)            119.2231         estimate D2E/DX2                !
 ! A63   A(37,36,42)           120.3527         estimate D2E/DX2                !
 ! A64   A(39,38,40)           119.6383         estimate D2E/DX2                !
 ! A65   A(39,38,42)           119.72           estimate D2E/DX2                !
 ! A66   A(40,38,42)           120.6417         estimate D2E/DX2                !
 ! A67   A(30,40,38)           120.4593         estimate D2E/DX2                !
 ! A68   A(30,40,41)           119.8011         estimate D2E/DX2                !
 ! A69   A(38,40,41)           119.7396         estimate D2E/DX2                !
 ! A70   A(36,42,38)           120.3727         estimate D2E/DX2                !
 ! A71   A(36,42,43)           119.8163         estimate D2E/DX2                !
 ! A72   A(38,42,43)           119.811          estimate D2E/DX2                !
 ! D1    D(7,2,4,30)           171.9615         estimate D2E/DX2                !
 ! D2    D(7,2,4,36)            -6.6908         estimate D2E/DX2                !
 ! D3    D(9,2,4,30)            40.8703         estimate D2E/DX2                !
 ! D4    D(9,2,4,36)          -137.782          estimate D2E/DX2                !
 ! D5    D(20,2,4,30)          -70.7849         estimate D2E/DX2                !
 ! D6    D(20,2,4,36)          110.5628         estimate D2E/DX2                !
 ! D7    D(4,2,20,3)           -66.3651         estimate D2E/DX2                !
 ! D8    D(4,2,20,21)          113.6636         estimate D2E/DX2                !
 ! D9    D(7,2,20,3)            49.577          estimate D2E/DX2                !
 ! D10   D(7,2,20,21)         -130.3942         estimate D2E/DX2                !
 ! D11   D(9,2,20,3)           178.8862         estimate D2E/DX2                !
 ! D12   D(9,2,20,21)           -1.085          estimate D2E/DX2                !
 ! D13   D(20,3,5,10)            2.0907         estimate D2E/DX2                !
 ! D14   D(20,3,5,14)         -177.8181         estimate D2E/DX2                !
 ! D15   D(26,3,5,10)         -177.1036         estimate D2E/DX2                !
 ! D16   D(26,3,5,14)            2.9877         estimate D2E/DX2                !
 ! D17   D(5,3,20,2)           174.9151         estimate D2E/DX2                !
 ! D18   D(5,3,20,21)           -5.1136         estimate D2E/DX2                !
 ! D19   D(26,3,20,2)           -5.9139         estimate D2E/DX2                !
 ! D20   D(26,3,20,21)         174.0574         estimate D2E/DX2                !
 ! D21   D(5,3,26,18)           -2.4672         estimate D2E/DX2                !
 ! D22   D(5,3,26,27)          177.5648         estimate D2E/DX2                !
 ! D23   D(20,3,26,18)         178.3674         estimate D2E/DX2                !
 ! D24   D(20,3,26,27)          -1.6005         estimate D2E/DX2                !
 ! D25   D(2,4,30,31)            0.4067         estimate D2E/DX2                !
 ! D26   D(2,4,30,40)         -179.6085         estimate D2E/DX2                !
 ! D27   D(36,4,30,31)         179.0507         estimate D2E/DX2                !
 ! D28   D(36,4,30,40)          -0.9645         estimate D2E/DX2                !
 ! D29   D(2,4,36,37)           -0.7971         estimate D2E/DX2                !
 ! D30   D(2,4,36,42)          179.1829         estimate D2E/DX2                !
 ! D31   D(30,4,36,37)        -179.421          estimate D2E/DX2                !
 ! D32   D(30,4,36,42)           0.559          estimate D2E/DX2                !
 ! D33   D(3,5,10,11)          168.7662         estimate D2E/DX2                !
 ! D34   D(3,5,10,13)          -10.81           estimate D2E/DX2                !
 ! D35   D(14,5,10,11)         -11.3269         estimate D2E/DX2                !
 ! D36   D(14,5,10,13)         169.0968         estimate D2E/DX2                !
 ! D37   D(3,5,14,15)          178.9082         estimate D2E/DX2                !
 ! D38   D(3,5,14,22)           -1.1286         estimate D2E/DX2                !
 ! D39   D(10,5,14,15)          -1.0019         estimate D2E/DX2                !
 ! D40   D(10,5,14,22)         178.9613         estimate D2E/DX2                !
 ! D41   D(16,6,8,1)             0.5186         estimate D2E/DX2                !
 ! D42   D(16,6,8,24)         -179.8452         estimate D2E/DX2                !
 ! D43   D(34,6,8,1)          -178.8908         estimate D2E/DX2                !
 ! D44   D(34,6,8,24)            0.7454         estimate D2E/DX2                !
 ! D45   D(8,6,16,11)          161.9771         estimate D2E/DX2                !
 ! D46   D(8,6,16,17)          -18.0561         estimate D2E/DX2                !
 ! D47   D(34,6,16,11)         -18.6433         estimate D2E/DX2                !
 ! D48   D(34,6,16,17)         161.3235         estimate D2E/DX2                !
 ! D49   D(8,6,34,28)           -0.8571         estimate D2E/DX2                !
 ! D50   D(8,6,34,35)          179.1629         estimate D2E/DX2                !
 ! D51   D(16,6,34,28)         179.7287         estimate D2E/DX2                !
 ! D52   D(16,6,34,35)          -0.2513         estimate D2E/DX2                !
 ! D53   D(1,8,24,25)           -0.6078         estimate D2E/DX2                !
 ! D54   D(1,8,24,32)          179.403          estimate D2E/DX2                !
 ! D55   D(6,8,24,25)          179.7448         estimate D2E/DX2                !
 ! D56   D(6,8,24,32)           -0.2445         estimate D2E/DX2                !
 ! D57   D(5,10,11,12)         -18.1035         estimate D2E/DX2                !
 ! D58   D(5,10,11,16)         161.8611         estimate D2E/DX2                !
 ! D59   D(13,10,11,12)        161.4832         estimate D2E/DX2                !
 ! D60   D(13,10,11,16)        -18.5522         estimate D2E/DX2                !
 ! D61   D(10,11,16,6)         179.6452         estimate D2E/DX2                !
 ! D62   D(10,11,16,17)         -0.3216         estimate D2E/DX2                !
 ! D63   D(12,11,16,6)          -0.3902         estimate D2E/DX2                !
 ! D64   D(12,11,16,17)        179.643          estimate D2E/DX2                !
 ! D65   D(5,14,22,18)          -1.3127         estimate D2E/DX2                !
 ! D66   D(5,14,22,23)         178.6085         estimate D2E/DX2                !
 ! D67   D(15,14,22,18)        178.6504         estimate D2E/DX2                !
 ! D68   D(15,14,22,23)         -1.4284         estimate D2E/DX2                !
 ! D69   D(19,18,22,14)       -178.0402         estimate D2E/DX2                !
 ! D70   D(19,18,22,23)          2.0385         estimate D2E/DX2                !
 ! D71   D(26,18,22,14)          1.903          estimate D2E/DX2                !
 ! D72   D(26,18,22,23)       -178.0182         estimate D2E/DX2                !
 ! D73   D(19,18,26,3)         179.9333         estimate D2E/DX2                !
 ! D74   D(19,18,26,27)         -0.0987         estimate D2E/DX2                !
 ! D75   D(22,18,26,3)          -0.0099         estimate D2E/DX2                !
 ! D76   D(22,18,26,27)        179.958          estimate D2E/DX2                !
 ! D77   D(8,24,32,28)          -0.1851         estimate D2E/DX2                !
 ! D78   D(8,24,32,33)         179.8214         estimate D2E/DX2                !
 ! D79   D(25,24,32,28)        179.8256         estimate D2E/DX2                !
 ! D80   D(25,24,32,33)         -0.1679         estimate D2E/DX2                !
 ! D81   D(29,28,32,24)       -179.9386         estimate D2E/DX2                !
 ! D82   D(29,28,32,33)          0.055          estimate D2E/DX2                !
 ! D83   D(34,28,32,24)          0.0738         estimate D2E/DX2                !
 ! D84   D(34,28,32,33)       -179.9326         estimate D2E/DX2                !
 ! D85   D(29,28,34,6)        -179.5162         estimate D2E/DX2                !
 ! D86   D(29,28,34,35)          0.4638         estimate D2E/DX2                !
 ! D87   D(32,28,34,6)           0.4715         estimate D2E/DX2                !
 ! D88   D(32,28,34,35)       -179.5486         estimate D2E/DX2                !
 ! D89   D(4,30,40,38)           0.4668         estimate D2E/DX2                !
 ! D90   D(4,30,40,41)        -179.6009         estimate D2E/DX2                !
 ! D91   D(31,30,40,38)       -179.5483         estimate D2E/DX2                !
 ! D92   D(31,30,40,41)          0.3839         estimate D2E/DX2                !
 ! D93   D(4,36,42,38)           0.3687         estimate D2E/DX2                !
 ! D94   D(4,36,42,43)        -179.6171         estimate D2E/DX2                !
 ! D95   D(37,36,42,38)       -179.6513         estimate D2E/DX2                !
 ! D96   D(37,36,42,43)          0.363          estimate D2E/DX2                !
 ! D97   D(39,38,40,30)       -179.4971         estimate D2E/DX2                !
 ! D98   D(39,38,40,41)          0.5706         estimate D2E/DX2                !
 ! D99   D(42,38,40,30)          0.4455         estimate D2E/DX2                !
 ! D100  D(42,38,40,41)       -179.4868         estimate D2E/DX2                !
 ! D101  D(39,38,42,36)        179.073          estimate D2E/DX2                !
 ! D102  D(39,38,42,43)         -0.9412         estimate D2E/DX2                !
 ! D103  D(40,38,42,36)         -0.8695         estimate D2E/DX2                !
 ! D104  D(40,38,42,43)        179.1163         estimate D2E/DX2                !
 --------------------------------------------------------------------------------
 Trust Radius=3.00D-01 FncErr=1.00D-07 GrdErr=1.00D-06 EigMax=2.50D+02 EigMin=1.00D-04
 Number of steps in this run=    231 maximum allowed number of steps=    258.
 GradGradGradGradGradGradGradGradGradGradGradGradGradGradGradGradGradGrad

                          Input orientation:                          
 ---------------------------------------------------------------------
 Center     Atomic      Atomic             Coordinates (Angstroms)
 Number     Number       Type             X           Y           Z
 ---------------------------------------------------------------------
      1         35           0        5.294200    3.296400    2.692500
      2         16           0       -3.238100    4.898500    0.878900
      3          6           0       -2.251500    4.177600    3.318400
      4          6           0       -3.796000    3.296200    0.430500
      5          6           0       -1.091300    3.978400    4.099300
      6          6           0        3.842100    4.300600    4.959500
      7          8           0       -4.346600    5.601500    1.433400
      8          6           0        5.090500    3.885500    4.485700
      9          8           0       -2.521200    5.460400   -0.223700
     10          6           0        0.263100    4.332300    3.590900
     11          6           0        1.399400    4.338300    4.530200
     12          1           0        1.228700    4.375300    5.443800
     13          8           0        0.454800    4.625800    2.413800
     14          6           0       -1.242200    3.434300    5.372800
     15          1           0       -0.484500    3.284100    5.890600
     16          6           0        2.646300    4.292300    4.116800
     17          1           0        2.781700    4.250800    3.197500
     18          6           0       -3.598600    3.360300    5.135900
     19          1           0       -4.437400    3.170900    5.489600
     20          7           0       -2.107500    4.680200    2.020500
     21          1           0       -1.307900    4.905000    1.797200
     22          6           0       -2.476900    3.112800    5.889000
     23          1           0       -2.550800    2.732500    6.734900
     24          6           0        6.218100    3.890100    5.280800
     25          1           0        7.034400    3.604800    4.938600
     26          6           0       -3.502600    3.885500    3.865700
     27          1           0       -4.273700    4.045500    3.371200
     28          6           0        4.915200    4.745800    7.088400
     29          1           0        4.853400    5.037100    7.969500
     30          6           0       -2.949400    2.472900   -0.285500
     31          1           0       -2.096200    2.757400   -0.522400
     32          6           0        6.124400    4.321000    6.586900
     33          1           0        6.879400    4.324700    7.129800
     34          6           0        3.796500    4.739800    6.287100
     35          1           0        2.987600    5.035600    6.637700
     36          6           0       -5.069000    2.883400    0.766100
     37          1           0       -5.636700    3.446300    1.241600
     38          6           0       -4.663500    0.805200   -0.296900
     39          1           0       -4.952800   -0.046000   -0.536200
     40          6           0       -3.400900    1.214200   -0.641800
     41          1           0       -2.845300    0.642200   -1.118900
     42          6           0       -5.490600    1.626200    0.388000
     43          1           0       -6.348400    1.341700    0.605100
 ---------------------------------------------------------------------
                    Distance matrix (angstroms):
                    1          2          3          4          5
     1  Br   0.000000
     2  S    8.868823   0.000000
     3  C    7.622720   2.728413   0.000000
     4  C    9.367411   1.754902   3.391506   0.000000
     5  C    6.574102   3.978230   1.412639   4.608784   0.000000
     6  C    2.873378   8.193779   6.311917   8.936511   5.018186
     7  O    9.992189   1.424939   3.157556   2.573592   4.509818
     8  C    1.898446   9.132401   7.439951   9.785796   6.194561
     9  O    8.617865   1.430176   3.776875   2.595545   4.788451
    10  C    5.214612   4.464743   2.534048   5.247659   1.489334
    11  C    4.430820   5.928931   3.850111   6.699679   2.553192
    12  H    5.026128   6.408147   4.082671   7.179502   2.710647
    13  O    5.026407   4.008465   2.888467   4.875512   2.377070
    14  C    7.065943   5.130559   2.406604   5.564827   1.393061
    15  H    6.604647   5.941863   3.246051   6.385834   2.014700
    16  C    3.167305   6.743711   4.963773   7.488942   3.750799
    17  H    2.734696   6.483318   5.035184   7.199562   3.985922
    18  C    9.222591   4.540712   2.405403   4.709975   2.782650
    19  H   10.126379   5.067689   3.241252   5.101136   3.712328
    20  N    7.559871   1.621469   1.399245   2.700850   2.417973
    21  H    6.853968   2.137519   1.932237   3.262935   2.491017
    22  C    8.404839   5.373011   2.791521   5.618619   2.423257
    23  H    8.843246   6.281455   3.721608   6.450871   3.260183
    24  C    2.811649  10.479185   8.698724  11.142725   7.404800
    25  H    2.858036  11.121110   9.443574  11.735236   8.177469
    26  C    8.894219   3.164981   1.396464   3.497707   2.424369
    27  H    9.621148   2.830483   2.027198   3.072029   3.265318
    28  C    4.644172  10.249757   8.117718  11.059565   6.752900
    29  H    5.574143  10.759563   8.535284  11.605144   7.172081
    30  C    8.803612   2.706051   4.047365   1.381018   4.994551
    31  H    8.077383   2.802122   4.097906   2.021792   4.884749
    32  C    4.111616  10.980491   8.992183  11.720316   7.640148
    33  H    4.822851  11.906587   9.895542  12.645260   8.534396
    34  C    4.153030   8.874650   6.760736   9.696896   5.408954
    35  H    4.889767   8.481858   6.261157   9.357995   4.919204
    36  C   10.548815   2.724986   4.015905   1.379696   5.303899
    37  H   11.027790   2.827316   4.038252   2.017075   5.395391
    38  C   10.691042   4.491033   5.501020   2.736192   6.492795
    39  H   11.251540   5.421327   6.324062   3.666469   7.252230
    40  C    9.542425   3.989123   5.077996   2.375006   5.954249
    41  H    9.371393   4.718219   5.704497   3.216860   6.437108
    42  C   11.154022   4.002835   5.058523   2.379575   6.217751
    43  H   11.988671   4.732838   5.673528   3.219519   6.840959
                    6          7          8          9         10
     6  C    0.000000
     7  O    9.010024   0.000000
     8  C    1.398319  10.065786   0.000000
     9  O    8.288684   2.469408   9.088275   0.000000
    10  C    3.831881   5.245475   4.929918   4.855524   0.000000
    11  C    2.480424   6.648486   3.719036   6.263368   1.474279
    12  H    2.658945   6.976449   4.008910   6.881842   2.089849
    13  O    4.249723   4.996661   5.131328   4.063193   1.228192
    14  C    5.174109   5.463783   6.410430   6.087835   2.499500
    15  H    4.540891   6.336623   5.780662   6.802139   2.635574
    16  C    1.462925   7.603637   2.505132   6.848902   2.440863
    17  H    2.057079   7.466532   2.668981   6.425612   2.550441
    18  C    7.501953   4.392151   8.729207   5.856323   4.271362
    19  H    8.373013   4.729569   9.607255   6.446350   5.200828
    20  N    6.646770   2.491395   7.649834   2.411699   2.864775
    21  H    6.073544   3.138656   7.014766   2.421694   2.452221
    22  C    6.496507   5.435235   7.735106   6.548152   3.778365
    23  H    6.817635   6.289830   8.048464   7.474251   4.512442
    24  C    2.432513  11.372962   1.379742  10.447044   6.205911
    25  H    3.267316  12.074784   2.015604  11.018261   6.942338
    26  C    7.437293   3.094039   8.615438   4.490729   3.802058
    27  H    8.273692   2.486266   9.431646   4.242229   4.551162
    28  C    2.425276  10.885412   2.746797  10.453588   5.834854
    29  H    3.259641  11.299520   3.676855  11.031429   6.382769
    30  C    8.773539   3.833396   9.455146   3.018664   5.366936
    31  H    8.227764   4.120480   8.831893   2.752464   4.996583
    32  C    2.803166  11.740532   2.381943  11.064760   6.582627
    33  H    3.733092  12.653152   3.222472  11.988956   7.503286
    34  C    1.399106   9.518981   2.376827   9.100721   4.463235
    35  H    2.021571   9.010853   3.221183   8.809435   4.147351
    36  C    9.949913   2.890540  10.865315   3.756583   6.205650
    37  H   10.217644   2.519133  11.215610   3.988740   6.411852
    38  C   10.592110   5.108704  11.291680   5.125007   7.199084
    39  H   11.244817   6.011743  11.897229   6.027502   7.962919
    40  C    9.662374   4.944614  10.272827   4.356477   6.408057
    41  H    9.749470   5.776053  10.242434   4.911362   6.742492
    42  C   10.730812   4.266686  11.569583   4.888006   7.119453
    43  H   11.470056   4.779035  12.344165   5.683138   7.846695
                   11         12         13         14         15
    11  C    0.000000
    12  H    0.930146   0.000000
    13  O    2.335396   3.137287   0.000000
    14  C    2.916375   2.644970   3.613193   0.000000
    15  H    2.551687   2.079760   3.843251   0.929939   0.000000
    16  C    1.314449   1.943555   2.795372   4.175420   3.736943
    17  H    1.922108   2.733710   2.483802   4.646544   4.342276
    18  C    5.128680   4.942454   5.043944   2.369434   3.205152
    19  H    6.029221   5.792872   5.959102   3.208165   3.974800
    20  N    4.325949   4.789799   2.592880   3.679528   4.422770
    21  H    3.888433   4.473546   1.888189   3.866806   4.478976
    22  C    4.286478   3.939998   4.791769   1.376339   1.999751
    23  H    4.800352   4.318605   5.593757   2.015012   2.299283
    24  C    4.897362   5.015586   6.478933   7.474777   6.757510
    25  H    5.697196   5.878354   7.120968   8.289735   7.585711
    26  C    4.967514   5.011537   4.279845   2.753968   3.683861
    27  H    5.797679   5.889044   4.859226   3.683743   4.613582
    28  C    4.367069   4.053673   6.462310   6.525097   5.720844
    29  H    4.924147   4.467168   7.098074   6.816756   5.990660
    30  C    6.751499   7.341698   4.848688   5.987920   6.699104
    31  H    6.344071   7.019124   4.315065   5.995072   6.633367
    32  C    5.153245   5.027674   7.046420   7.518449   6.725887
    33  H    6.065353   5.897081   7.975387   8.357048   7.539595
    34  C    2.998998   2.727199   5.116875   5.284768   4.539079
    35  H    2.729499   2.226010   4.942099   4.696312   3.959973
    36  C    7.624000   7.985466   6.021897   6.014115   6.887576
    37  H    7.817753   8.102792   6.314400   6.031466   6.941518
    38  C    8.517185   8.967679   6.938435   7.124813   7.867283
    39  H    9.232602   9.670534   7.731129   7.797264   8.506411
    40  C    7.717024   8.274073   5.986830   6.764927   7.447290
    41  H    7.974394   8.579192   6.264160   7.246235   7.854050
    42  C    8.484421   8.846901   6.960549   6.794583   7.621567
    43  H    9.187732   9.488319   7.767898   7.292682   8.129868
                   16         17         18         19         20
    16  C    0.000000
    17  H    0.930144   0.000000
    18  C    6.395777   6.727452   0.000000
    19  H    7.302118   7.650837   0.929818   0.000000
    20  N    5.209948   5.047176   3.697463   4.443093   0.000000
    21  H    4.625110   4.371916   4.333627   5.141468   0.860092
    22  C    5.547891   6.015986   1.373545   2.001613   4.190285
    23  H    6.024722   6.576777   2.012168   2.302656   5.120119
    24  C    3.778150   4.034735   9.832054  10.681785   8.976048
    25  H    4.517016   4.640496  10.637641  11.493218   9.656403
    26  C    6.167456   6.330273   1.377846   2.005382   2.445938
    27  H    6.964426   7.060523   2.009832   2.297682   2.630524
    28  C    3.766162   4.464969   8.844018   9.618087   8.660614
    29  H    4.502146   5.261387   9.070681   9.795487   9.163630
    30  C    7.348627   6.938136   5.531773   6.004426   3.301304
    31  H    6.809508   6.313621   5.885325   6.465009   3.188045
    32  C    4.266075   4.760946   9.877503  10.680750   9.420468
    33  H    5.195994   5.679753  10.709537  11.493105  10.343873
    34  C    2.496681   3.288551   7.610242   8.419891   7.284548
    35  H    2.650267   3.534584   6.959890   7.741180   6.885121
    36  C    8.528660   8.331565   4.635155   4.774204   3.684086
    37  H    8.808552   8.679990   4.396228   4.422632   3.818959
    38  C    9.223545   8.917062   6.097365   6.255497   5.188362
    39  H    9.910478   9.603411   6.753477   6.850135   6.080248
    40  C    8.287798   7.885791   6.166575   6.518978   4.557837
    41  H    8.419825   7.957162   6.861345   7.252681   5.167749
    42  C    9.339228   9.122103   5.397159   5.433383   4.841212
    43  H   10.096668   9.926839   5.671357   5.554839   5.579800
                   21         22         23         24         25
    21  H    0.000000
    22  C    4.617507   0.000000
    23  H    5.535832   0.930396   0.000000
    24  C    8.355008   8.750836   8.963707   0.000000
    25  H    9.008490   9.571319   9.790999   0.929969   0.000000
    26  C    3.183517   2.396428   3.235373   9.823163  10.595201
    27  H    3.465860   3.230749   4.000854  10.665298  11.424714
    28  C    8.170013   7.664750   7.740768   2.386878   3.227155
    29  H    8.722176   7.859053   7.852235   3.226007   3.999325
    30  C    3.598232   6.225526   7.036497  10.818281  11.324693
    31  H    3.257936   6.432518   7.271567  10.202339  10.672791
    32  C    8.861228   8.713735   8.820676   1.378532   2.014432
    33  H    9.788016   9.515705   9.571819   2.011218   2.311631
    34  C    6.800102   6.493163   6.672181   2.756588   3.686553
    35  H    6.472930   5.841102   5.998966   3.686391   4.616354
    36  C    4.392711   5.745930   6.480021  12.198139  12.822732
    37  H    4.601631   5.629732   6.341028  12.531894  13.200368
    38  C    5.696812   6.954969   7.591060  12.610970  13.118273
    39  H    6.575899   7.575704   8.146076  13.195430  13.674602
    40  C    4.894014   6.863658   7.579156  11.608738  12.072751
    41  H    5.388757   7.439775   8.132543  11.560719  11.961554
    42  C    5.498305   6.446190   7.081629  12.890244  13.472136
    43  H    6.286879   6.785640   7.343741  13.648203  14.247813
                   26         27         28         29         30
    26  C    0.000000
    27  H    0.929906   0.000000
    28  C    9.054572   9.936995   0.000000
    29  H    9.380303  10.267989   0.930060   0.000000
    30  C    4.419721   4.195032  11.017822  11.644906   0.000000
    31  H    4.744048   4.643364  10.537445  11.207423   0.930060
    32  C   10.013677  10.887475   1.376271   2.009931  11.531661
    33  H   10.891885  11.772709   2.009259   2.305924  12.450749
    34  C    7.737562   8.608871   1.376084   2.008954   9.687367
    35  H    7.150483   8.023515   2.000689   2.292358   9.473442
    36  C    3.614600   2.961338  11.963455  12.449153   2.401474
    37  H    3.410745   2.598462  12.133275  12.563339   3.240544
    38  C    5.306899   4.909832  12.720946  13.297132   2.391546
    39  H    6.077540   5.698186  13.359390  13.940818   3.228207
    40  C    5.240586   4.988207  11.890572  12.526074   1.383881
    41  H    5.983082   5.812381  12.017681  12.695832   2.014164
    42  C    4.599019   4.029062  12.763539  13.270709   2.761920
    43  H    5.020061   4.389331  13.434648  13.905779   3.691339
                   31         32         33         34         35
    31  H    0.000000
    32  C   10.980221   0.000000
    33  H   11.898487   0.929935   0.000000
    34  C    9.220798   2.384196   3.222844   0.000000
    35  H    9.072059   3.217569   3.986684   0.929912   0.000000
    36  C    3.242476  12.698055  13.613900  10.607768  10.198846
    37  H    4.015149  12.948390  13.859843  10.775689  10.296714
    38  C    3.233104  13.271260  14.169732  11.419358  11.159045
    39  H    4.002425  13.874927  14.760472  12.083524  11.846411
    40  C    2.024343  12.354661  13.257358  10.594436  10.411875
    41  H    2.321860  12.384201  13.272967  10.758841  10.653146
    42  C    3.691936  13.438621  14.344012  11.434339  11.070801
    43  H    4.621327  14.150226  15.048079  12.114091  11.713157
                   36         37         38         39         40
    36  C    0.000000
    37  H    0.930183   0.000000
    38  C    2.369243   3.207727   0.000000
    39  H    3.207939   3.977996   0.930323   0.000000
    40  C    2.747903   3.678079   1.371275   2.001911   0.000000
    41  H    3.677097   4.607261   2.002025   2.292316   0.929247
    42  C    1.378861   2.015625   1.351748   1.984849   2.365814
    43  H    2.009882   2.311058   1.985025   2.275077   3.202932
                   41         42         43
    41  H    0.000000
    42  C    3.199471   0.000000
    43  H    3.966508   0.929459   0.000000
 Stoichiometry    C21H16BrNO3S
 Framework group  C1[X(C21H16BrNO3S)]
 Deg. of freedom   123
 Full point group                 C1      NOp   1
 Largest Abelian subgroup         C1      NOp   1
 Largest concise Abelian subgroup C1      NOp   1
                         Standard orientation:                         
 ---------------------------------------------------------------------
 Center     Atomic      Atomic             Coordinates (Angstroms)
 Number     Number       Type             X           Y           Z
 ---------------------------------------------------------------------
      1         35           0       -4.679292   -2.256543   -0.264255
      2         16           0        3.798699   -0.348710    1.507708
      3          6           0        2.036628    1.312368    0.250664
      4          6           0        4.586326   -0.914536    0.045119
      5          6           0        0.686812    1.537751   -0.099692
      6          6           0       -4.228374    0.553322    0.132772
      7          8           0        4.578040    0.723930    2.029744
      8          6           0       -5.186089   -0.432262   -0.125494
      9          8           0        3.500334   -1.476900    2.334491
     10          6           0       -0.407253    0.659152    0.399509
     11          6           0       -1.806442    1.083222    0.209947
     12          1           0       -1.985206    1.976785    0.023503
     13          8           0       -0.173196   -0.402908    0.970212
     14          6           0        0.396070    2.613517   -0.935644
     15          1           0       -0.487002    2.763094   -1.185837
     16          6           0       -2.809206    0.237696    0.295540
     17          1           0       -2.595295   -0.648920    0.478081
     18          6           0        2.674764    3.258613   -1.010636
     19          1           0        3.336142    3.844544   -1.300163
     20          7           0        2.345447    0.207644    1.051977
     21          1           0        1.670339   -0.238285    1.343755
     22          6           0        1.374048    3.462147   -1.402220
     23          1           0        1.157732    4.162566   -1.975159
     24          6           0       -6.524274   -0.134967   -0.282221
     25          1           0       -7.137719   -0.811752   -0.456835
     26          6           0        3.016495    2.201845   -0.195210
     27          1           0        3.902821    2.080460    0.058596
     28          6           0       -6.033720    2.172061    0.084065
     29          1           0       -6.318396    3.054637    0.155004
     30          6           0        4.117159   -2.062905   -0.561792
     31          1           0        3.393355   -2.527195   -0.207456
     32          6           0       -6.944264    1.173887   -0.178000
     33          1           0       -7.844164    1.382558   -0.284850
     34          6           0       -4.701431    1.865561    0.241138
     35          1           0       -4.098624    2.549575    0.424128
     36          6           0        5.672039   -0.235168   -0.467958
     37          1           0        5.987627    0.533227   -0.049373
     38          6           0        5.822060   -1.821379   -2.221452
     39          1           0        6.234309   -2.125578   -2.997992
     40          6           0        4.749658   -2.506125   -1.710108
     41          1           0        4.446485   -3.273564   -2.137452
     42          6           0        6.284676   -0.708752   -1.608857
     43          1           0        7.020004   -0.260560   -1.958585
 ---------------------------------------------------------------------
 Rotational constants (GHZ):           0.2815771           0.0603670           0.0548205
 Standard basis: 6-311++G(d,p) (5D, 7F)
 There are   769 symmetry adapted cartesian basis functions of A   symmetry.
 There are   740 symmetry adapted basis functions of A   symmetry.
   740 basis functions,  1188 primitive gaussians,   769 cartesian basis functions
   112 alpha electrons      112 beta electrons
       nuclear repulsion energy      2897.1964652915 Hartrees.
 NAtoms=   43 NActive=   43 NUniq=   43 SFac= 1.00D+00 NAtFMM=   60 NAOKFM=F Big=F
 Integral buffers will be    131072 words long.
 Raffenetti 2 integral format.
 Two-electron integral symmetry is turned on.
 R6APFD:  NTU= -4 IXU= 1 FactS= 1.050
 Nuclear repulsion after empirical dispersion term =     2897.1561466534 Hartrees.
 One-electron integrals computed using PRISM.
 NBasis=   740 RedAO= T EigKep=  1.09D-06  NBF=   740
 NBsUse=   734 1.00D-06 EigRej=  6.80D-07 NBFU=   734
 ExpMin= 3.50D-02 ExpMax= 4.40D+05 ExpMxC= 1.51D+04 IAcc=3 IRadAn=         5 AccDes= 0.00D+00
 Harris functional with IExCor= 1009 and IRadAn=       5 diagonalized for initial guess.
 HarFok:  IExCor= 1009 AccDes= 0.00D+00 IRadAn=         5 IDoV= 1 UseB2=F ITyADJ=14
 ICtDFT=  3500011 ScaDFX=  1.000000  1.000000  1.000000  1.000000
 FoFCou: FMM=F IPFlag=           0 FMFlag=      100000 FMFlg1=           0
         NFxFlg=           0 DoJE=T BraDBF=F KetDBF=T FulRan=T
         wScrn=  0.000000 ICntrl=       500 IOpCl=  0 I1Cent=   200000004 NGrid=           0
         NMat0=    1 NMatS0=      1 NMatT0=    0 NMatD0=    1 NMtDS0=    0 NMtDT0=    0
 Petite list used in FoFCou.
 Requested convergence on RMS density matrix=1.00D-08 within  32 cycles.
 Requested convergence on MAX density matrix=1.00D-06.
 Requested convergence on             energy=1.00D-06.
 No special actions if energy rises.
 SCF Done:  E(RM08HX) =  -4062.19485212     A.U. after   17 cycles
            NFock= 17  Conv=0.74D-08     -V/T= 2.0006
 QCSCF skips out because SCF is already converged.

 **********************************************************************

            Population analysis using the SCF Density.

 **********************************************************************

 Orbital symmetries:
       Occupied  (A) (A) (A) (A) (A) (A) (A) (A) (A) (A) (A) (A)
                 (A) (A) (A) (A) (A) (A) (A) (A) (A) (A) (A) (A)
                 (A) (A) (A) (A) (A) (A) (A) (A) (A) (A) (A) (A)
                 (A) (A) (A) (A) (A) (A) (A) (A) (A) (A) (A) (A)
                 (A) (A) (A) (A) (A) (A) (A) (A) (A) (A) (A) (A)
                 (A) (A) (A) (A) (A) (A) (A) (A) (A) (A) (A) (A)
                 (A) (A) (A) (A) (A) (A) (A) (A) (A) (A) (A) (A)
                 (A) (A) (A) (A) (A) (A) (A) (A) (A) (A) (A) (A)
                 (A) (A) (A) (A) (A) (A) (A) (A) (A) (A) (A) (A)
                 (A) (A) (A) (A)
       Virtual   (A) (A) (A) (A) (A) (A) (A) (A) (A) (A) (A) (A)
                 (A) (A) (A) (A) (A) (A) (A) (A) (A) (A) (A) (A)
                 (A) (A) (A) (A) (A) (A) (A) (A) (A) (A) (A) (A)
                 (A) (A) (A) (A) (A) (A) (A) (A) (A) (A) (A) (A)
                 (A) (A) (A) (A) (A) (A) (A) (A) (A) (A) (A) (A)
                 (A) (A) (A) (A) (A) (A) (A) (A) (A) (A) (A) (A)
                 (A) (A) (A) (A) (A) (A) (A) (A) (A) (A) (A) (A)
                 (A) (A) (A) (A) (A) (A) (A) (A) (A) (A) (A) (A)
                 (A) (A) (A) (A) (A) (A) (A) (A) (A) (A) (A) (A)
                 (A) (A) (A) (A) (A) (A) (A) (A) (A) (A) (A) (A)
                 (A) (A) (A) (A) (A) (A) (A) (A) (A) (A) (A) (A)
                 (A) (A) (A) (A) (A) (A) (A) (A) (A) (A) (A) (A)
                 (A) (A) (A) (A) (A) (A) (A) (A) (A) (A) (A) (A)
                 (A) (A) (A) (A) (A) (A) (A) (A) (A) (A) (A) (A)
                 (A) (A) (A) (A) (A) (A) (A) (A) (A) (A) (A) (A)
                 (A) (A) (A) (A) (A) (A) (A) (A) (A) (A) (A) (A)
                 (A) (A) (A) (A) (A) (A) (A) (A) (A) (A) (A) (A)
                 (A) (A) (A) (A) (A) (A) (A) (A) (A) (A) (A) (A)
                 (A) (A) (A) (A) (A) (A) (A) (A) (A) (A) (A) (A)
                 (A) (A) (A) (A) (A) (A) (A) (A) (A) (A) (A) (A)
                 (A) (A) (A) (A) (A) (A) (A) (A) (A) (A) (A) (A)
                 (A) (A) (A) (A) (A) (A) (A) (A) (A) (A) (A) (A)
                 (A) (A) (A) (A) (A) (A) (A) (A) (A) (A) (A) (A)
                 (A) (A) (A) (A) (A) (A) (A) (A) (A) (A) (A) (A)
                 (A) (A) (A) (A) (A) (A) (A) (A) (A) (A) (A) (A)
                 (A) (A) (A) (A) (A) (A) (A) (A) (A) (A) (A) (A)
                 (A) (A) (A) (A) (A) (A) (A) (A) (A) (A) (A) (A)
                 (A) (A) (A) (A) (A) (A) (A) (A) (A) (A) (A) (A)
                 (A) (A) (A) (A) (A) (A) (A) (A) (A) (A) (A) (A)
                 (A) (A) (A) (A) (A) (A) (A) (A) (A) (A) (A) (A)
                 (A) (A) (A) (A) (A) (A) (A) (A) (A) (A) (A) (A)
                 (A) (A) (A) (A) (A) (A) (A) (A) (A) (A) (A) (A)
                 (A) (A) (A) (A) (A) (A) (A) (A) (A) (A) (A) (A)
                 (A) (A) (A) (A) (A) (A) (A) (A) (A) (A) (A) (A)
                 (A) (A) (A) (A) (A) (A) (A) (A) (A) (A) (A) (A)
                 (A) (A) (A) (A) (A) (A) (A) (A) (A) (A) (A) (A)
                 (A) (A) (A) (A) (A) (A) (A) (A) (A) (A) (A) (A)
                 (A) (A) (A) (A) (A) (A) (A) (A) (A) (A) (A) (A)
                 (A) (A) (A) (A) (A) (A) (A) (A) (A) (A) (A) (A)
                 (A) (A) (A) (A) (A) (A) (A) (A) (A) (A) (A) (A)
                 (A) (A) (A) (A) (A) (A) (A) (A) (A) (A) (A) (A)
                 (A) (A) (A) (A) (A) (A) (A) (A) (A) (A) (A) (A)
                 (A) (A) (A) (A) (A) (A) (A) (A) (A) (A) (A) (A)
                 (A) (A) (A) (A) (A) (A) (A) (A) (A) (A) (A) (A)
                 (A) (A) (A) (A) (A) (A) (A) (A) (A) (A) (A) (A)
                 (A) (A) (A) (A) (A) (A) (A) (A) (A) (A) (A) (A)
                 (A) (A) (A) (A) (A) (A) (A) (A) (A) (A) (A) (A)
                 (A) (A) (A) (A) (A) (A) (A) (A) (A) (A) (A) (A)
                 (A) (A) (A) (A) (A) (A) (A) (A) (A) (A) (A) (A)
                 (A) (A) (A) (A) (A) (A) (A) (A) (A) (A) (A) (A)
                 (A) (A) (A) (A) (A) (A) (A) (A) (A) (A) (A) (A)
                 (A) (A) (A) (A) (A) (A) (A) (A) (A) (A)
 The electronic state is 1-A.
 Alpha  occ. eigenvalues -- -485.27506 -90.08878 -63.23879 -57.13012 -57.12759
 Alpha  occ. eigenvalues --  -57.12750 -19.61190 -19.60336 -19.60106 -14.77063
 Alpha  occ. eigenvalues --  -10.64196 -10.61502 -10.61343 -10.57669 -10.57543
 Alpha  occ. eigenvalues --  -10.56555 -10.55010 -10.54474 -10.54471 -10.54439
 Alpha  occ. eigenvalues --  -10.54422 -10.54378 -10.54091 -10.53862 -10.53672
 Alpha  occ. eigenvalues --  -10.53618 -10.53571 -10.53445 -10.53376 -10.53276
 Alpha  occ. eigenvalues --  -10.52777  -8.98447  -8.42579  -6.83614  -6.82696
 Alpha  occ. eigenvalues --   -6.82683  -6.37498  -6.37473  -6.37326  -2.87152
 Alpha  occ. eigenvalues --   -2.86817  -2.86799  -2.85980  -2.85979  -1.27030
 Alpha  occ. eigenvalues --   -1.18245  -1.14023  -1.09106  -1.02089  -1.01244
 Alpha  occ. eigenvalues --   -0.99701  -0.95104  -0.92966  -0.91208  -0.90655
 Alpha  occ. eigenvalues --   -0.89635  -0.88570  -0.88201  -0.84683  -0.80422
 Alpha  occ. eigenvalues --   -0.79068  -0.76266  -0.75285  -0.75267  -0.73321
 Alpha  occ. eigenvalues --   -0.71683  -0.71360  -0.68136  -0.68008  -0.65212
 Alpha  occ. eigenvalues --   -0.64467  -0.63229  -0.62060  -0.59307  -0.58739
 Alpha  occ. eigenvalues --   -0.57852  -0.57149  -0.56950  -0.56502  -0.55657
 Alpha  occ. eigenvalues --   -0.55097  -0.54162  -0.53296  -0.53058  -0.52553
 Alpha  occ. eigenvalues --   -0.51772  -0.51143  -0.49417  -0.48552  -0.48117
 Alpha  occ. eigenvalues --   -0.47641  -0.47170  -0.46654  -0.46163  -0.45580
 Alpha  occ. eigenvalues --   -0.45359  -0.43402  -0.43185  -0.41849  -0.40594
 Alpha  occ. eigenvalues --   -0.39485  -0.39212  -0.38966  -0.38614  -0.35869
 Alpha  occ. eigenvalues --   -0.35070  -0.34471  -0.33951  -0.33545  -0.32400
 Alpha  occ. eigenvalues --   -0.30677  -0.29687
 Alpha virt. eigenvalues --   -0.07644  -0.03620  -0.03048  -0.02941  -0.02594
 Alpha virt. eigenvalues --   -0.02207  -0.01705  -0.01509  -0.01332  -0.01048
 Alpha virt. eigenvalues --   -0.00571  -0.00355  -0.00211   0.00283   0.00516
 Alpha virt. eigenvalues --    0.01043   0.01220   0.01520   0.01766   0.02266
 Alpha virt. eigenvalues --    0.02475   0.02976   0.03119   0.03461   0.03666
 Alpha virt. eigenvalues --    0.03839   0.04335   0.04491   0.04948   0.05438
 Alpha virt. eigenvalues --    0.05703   0.06228   0.06546   0.06924   0.07188
 Alpha virt. eigenvalues --    0.07705   0.07868   0.07971   0.08425   0.08554
 Alpha virt. eigenvalues --    0.08974   0.09269   0.09470   0.09687   0.09848
 Alpha virt. eigenvalues --    0.10091   0.10285   0.10555   0.10634   0.10739
 Alpha virt. eigenvalues --    0.10920   0.11234   0.11452   0.11498   0.11842
 Alpha virt. eigenvalues --    0.12017   0.12340   0.12480   0.12529   0.12765
 Alpha virt. eigenvalues --    0.13228   0.13233   0.13637   0.13985   0.14036
 Alpha virt. eigenvalues --    0.14380   0.14512   0.14534   0.14967   0.15278
 Alpha virt. eigenvalues --    0.15385   0.15759   0.16003   0.16181   0.16412
 Alpha virt. eigenvalues --    0.16532   0.16652   0.16719   0.17031   0.17543
 Alpha virt. eigenvalues --    0.17753   0.17796   0.18046   0.18276   0.18967
 Alpha virt. eigenvalues --    0.19114   0.19292   0.19499   0.19774   0.20229
 Alpha virt. eigenvalues --    0.20432   0.20509   0.20975   0.21290   0.21502
 Alpha virt. eigenvalues --    0.21779   0.22032   0.22241   0.22650   0.22768
 Alpha virt. eigenvalues --    0.23183   0.23380   0.23647   0.23778   0.24103
 Alpha virt. eigenvalues --    0.24489   0.24790   0.25018   0.25199   0.25692
 Alpha virt. eigenvalues --    0.26157   0.26238   0.26661   0.26887   0.27290
 Alpha virt. eigenvalues --    0.27706   0.28264   0.28606   0.28699   0.29204
 Alpha virt. eigenvalues --    0.29407   0.29782   0.30260   0.30485   0.30654
 Alpha virt. eigenvalues --    0.31170   0.31511   0.31703   0.32166   0.32786
 Alpha virt. eigenvalues --    0.32972   0.33123   0.33412   0.33622   0.34164
 Alpha virt. eigenvalues --    0.34896   0.35104   0.35254   0.35609   0.35984
 Alpha virt. eigenvalues --    0.36196   0.36448   0.36620   0.36949   0.37285
 Alpha virt. eigenvalues --    0.37403   0.38114   0.38514   0.38754   0.38866
 Alpha virt. eigenvalues --    0.39107   0.39371   0.39770   0.40781   0.41019
 Alpha virt. eigenvalues --    0.41295   0.42012   0.42055   0.42495   0.43319
 Alpha virt. eigenvalues --    0.43893   0.44738   0.45302   0.45955   0.46971
 Alpha virt. eigenvalues --    0.47750   0.47846   0.48729   0.49980   0.50441
 Alpha virt. eigenvalues --    0.50624   0.51503   0.52140   0.53136   0.54403
 Alpha virt. eigenvalues --    0.54815   0.55599   0.55952   0.56293   0.57572
 Alpha virt. eigenvalues --    0.57703   0.57956   0.58377   0.58483   0.58699
 Alpha virt. eigenvalues --    0.59015   0.59312   0.59887   0.60143   0.60492
 Alpha virt. eigenvalues --    0.60798   0.60964   0.61501   0.62147   0.62279
 Alpha virt. eigenvalues --    0.63061   0.63424   0.63923   0.64152   0.64876
 Alpha virt. eigenvalues --    0.65019   0.65308   0.66084   0.66442   0.66755
 Alpha virt. eigenvalues --    0.67350   0.67855   0.68509   0.68726   0.69242
 Alpha virt. eigenvalues --    0.69801   0.70260   0.71053   0.71720   0.71957
 Alpha virt. eigenvalues --    0.72046   0.72242   0.73151   0.73956   0.74186
 Alpha virt. eigenvalues --    0.74363   0.74889   0.75376   0.75842   0.76003
 Alpha virt. eigenvalues --    0.76557   0.77343   0.77848   0.78638   0.79093
 Alpha virt. eigenvalues --    0.79226   0.79898   0.80157   0.80299   0.80994
 Alpha virt. eigenvalues --    0.82013   0.82311   0.82786   0.83222   0.83745
 Alpha virt. eigenvalues --    0.84335   0.84559   0.85591   0.85911   0.86390
 Alpha virt. eigenvalues --    0.86785   0.86902   0.87267   0.87836   0.88231
 Alpha virt. eigenvalues --    0.88363   0.88828   0.89446   0.90335   0.91220
 Alpha virt. eigenvalues --    0.91479   0.92085   0.92386   0.92926   0.93560
 Alpha virt. eigenvalues --    0.94234   0.95007   0.95847   0.95985   0.96967
 Alpha virt. eigenvalues --    0.97778   0.98446   0.98509   0.99322   0.99948
 Alpha virt. eigenvalues --    1.00906   1.01151   1.01405   1.01773   1.02915
 Alpha virt. eigenvalues --    1.03917   1.04575   1.04891   1.05455   1.05927
 Alpha virt. eigenvalues --    1.06529   1.06843   1.07433   1.07812   1.08847
 Alpha virt. eigenvalues --    1.09628   1.09825   1.09930   1.11347   1.11734
 Alpha virt. eigenvalues --    1.13323   1.13546   1.14311   1.14379   1.15537
 Alpha virt. eigenvalues --    1.15837   1.16300   1.17273   1.17909   1.18214
 Alpha virt. eigenvalues --    1.18982   1.19489   1.20095   1.21574   1.22629
 Alpha virt. eigenvalues --    1.23837   1.24596   1.25957   1.27311   1.27568
 Alpha virt. eigenvalues --    1.28274   1.29212   1.29942   1.30636   1.31051
 Alpha virt. eigenvalues --    1.31810   1.32559   1.32772   1.34622   1.36490
 Alpha virt. eigenvalues --    1.36970   1.37680   1.38770   1.42128   1.43413
 Alpha virt. eigenvalues --    1.47203   1.49117   1.51171   1.51574   1.52504
 Alpha virt. eigenvalues --    1.52826   1.53677   1.54999   1.55870   1.56214
 Alpha virt. eigenvalues --    1.56824   1.57588   1.58319   1.58673   1.59039
 Alpha virt. eigenvalues --    1.60098   1.60776   1.62155   1.63309   1.63888
 Alpha virt. eigenvalues --    1.64093   1.64404   1.64722   1.65453   1.65738
 Alpha virt. eigenvalues --    1.67012   1.68920   1.70177   1.70883   1.71268
 Alpha virt. eigenvalues --    1.71845   1.72411   1.72700   1.73029   1.74029
 Alpha virt. eigenvalues --    1.75648   1.76591   1.78023   1.78649   1.79027
 Alpha virt. eigenvalues --    1.80639   1.81610   1.83062   1.84405   1.85064
 Alpha virt. eigenvalues --    1.85657   1.86417   1.86567   1.87294   1.88545
 Alpha virt. eigenvalues --    1.88817   1.89412   1.90169   1.90502   1.91810
 Alpha virt. eigenvalues --    1.92663   1.93627   1.94190   1.94943   1.95229
 Alpha virt. eigenvalues --    1.96227   1.97394   1.98468   1.98971   1.99503
 Alpha virt. eigenvalues --    1.99812   2.00069   2.00415   2.00741   2.01607
 Alpha virt. eigenvalues --    2.02266   2.02418   2.03251   2.03546   2.05086
 Alpha virt. eigenvalues --    2.05894   2.06501   2.07547   2.08303   2.09453
 Alpha virt. eigenvalues --    2.10134   2.11127   2.11789   2.12105   2.13815
 Alpha virt. eigenvalues --    2.15057   2.16457   2.17521   2.18112   2.18494
 Alpha virt. eigenvalues --    2.19690   2.20276   2.21617   2.23491   2.23901
 Alpha virt. eigenvalues --    2.24785   2.26940   2.28145   2.30727   2.32654
 Alpha virt. eigenvalues --    2.33360   2.34406   2.35828   2.36225   2.36703
 Alpha virt. eigenvalues --    2.37061   2.37960   2.39075   2.40123   2.40363
 Alpha virt. eigenvalues --    2.41246   2.42246   2.43088   2.43898   2.46028
 Alpha virt. eigenvalues --    2.46908   2.47600   2.47847   2.48852   2.51843
 Alpha virt. eigenvalues --    2.53298   2.55310   2.56229   2.57864   2.60039
 Alpha virt. eigenvalues --    2.62217   2.65609   2.67298   2.68328   2.72083
 Alpha virt. eigenvalues --    2.73191   2.74308   2.76304   2.76617   2.77953
 Alpha virt. eigenvalues --    2.78603   2.79213   2.79788   2.82505   2.83603
 Alpha virt. eigenvalues --    2.83973   2.85876   2.86309   2.87554   2.88710
 Alpha virt. eigenvalues --    2.90093   2.91312   2.91871   2.92187   2.93087
 Alpha virt. eigenvalues --    2.93629   2.94237   2.95033   2.95458   2.95706
 Alpha virt. eigenvalues --    2.96151   2.96915   2.97122   2.98036   2.98437
 Alpha virt. eigenvalues --    2.99293   3.00351   3.00930   3.01044   3.01599
 Alpha virt. eigenvalues --    3.01967   3.02738   3.03032   3.03559   3.04427
 Alpha virt. eigenvalues --    3.04559   3.06250   3.07014   3.07929   3.08947
 Alpha virt. eigenvalues --    3.11254   3.11701   3.12667   3.13583   3.15450
 Alpha virt. eigenvalues --    3.16204   3.17140   3.17412   3.18515   3.20311
 Alpha virt. eigenvalues --    3.22052   3.23569   3.24795   3.25748   3.25893
 Alpha virt. eigenvalues --    3.27272   3.28971   3.32672   3.34018   3.34929
 Alpha virt. eigenvalues --    3.39030   3.41037   3.41864   3.42983   3.46265
 Alpha virt. eigenvalues --    3.47371   3.50664   3.52251   3.52876   3.53649
 Alpha virt. eigenvalues --    3.57742   3.61993   3.65754   3.67866   3.68886
 Alpha virt. eigenvalues --    3.69907   3.71025   3.72422   3.73019   3.73700
 Alpha virt. eigenvalues --    3.74175   3.77349   3.81586   3.84684   3.89170
 Alpha virt. eigenvalues --    3.90627   3.95323   3.96528   4.04164   4.06190
 Alpha virt. eigenvalues --    4.17296   4.27567   4.29697   4.30445   4.31276
 Alpha virt. eigenvalues --    4.32564   4.32911   4.34078   4.35388   4.36155
 Alpha virt. eigenvalues --    4.37891   4.39493   4.40819   4.42969   4.44528
 Alpha virt. eigenvalues --    4.55757   4.58543   4.62808   4.69376   4.76645
 Alpha virt. eigenvalues --    4.92150   4.92922   4.94285   5.19310   5.21382
 Alpha virt. eigenvalues --    5.22830   5.25047   5.26505   5.30723   5.35077
 Alpha virt. eigenvalues --    5.49550   5.51128   5.92245   6.94179   7.64549
 Alpha virt. eigenvalues --    7.78341   7.85081   8.44152  17.60758  17.63149
 Alpha virt. eigenvalues --   17.83929  23.71878  23.79991  23.84995  23.92955
 Alpha virt. eigenvalues --   24.03665  24.05612  24.05944  24.10822  24.11455
 Alpha virt. eigenvalues --   24.12682  24.21911  24.22960  24.24403  24.28767
 Alpha virt. eigenvalues --   24.28961  24.29684  24.31023  24.39469  24.41155
 Alpha virt. eigenvalues --   24.44455  24.46262  35.82453  48.49873  49.94677
 Alpha virt. eigenvalues --   49.98936  50.04957 189.25474 290.55426 290.70334
 Alpha virt. eigenvalues --  290.786351019.63695
          Condensed to atoms (all electrons):
               1          2          3          4          5          6
     1  Br  35.378443   0.001294   0.006579  -0.002809   0.077384  -0.022398
     2  S    0.001294  26.454810   0.011768  -5.629385  -0.052211  -0.013190
     3  C    0.006579   0.011768  48.012895  -1.549348   5.973562   0.181404
     4  C   -0.002809  -5.629385  -1.549348  56.712907  -2.079697   0.028701
     5  C    0.077384  -0.052211   5.973562  -2.079697  46.398067  -0.256380
     6  C   -0.022398  -0.013190   0.181404   0.028701  -0.256380  26.535793
     7  O    0.000026   1.292624   1.176968  -0.571123   0.189529  -0.001192
     8  C   -0.870127  -0.002528  -0.162825   0.010595  -0.817821   4.437296
     9  O   -0.000092  -1.306888  -0.645282   0.770945   0.148307   0.002312
    10  C    0.031127  -0.160552  -3.857696   2.466912  -2.554677   0.020212
    11  C   -0.108962   0.007136  -4.499801   0.705970 -11.455180  -9.841957
    12  H   -0.001294  -0.000012  -0.155202   0.001747   0.550622  -0.034730
    13  O    0.003624   0.092067   0.090622  -0.016133   0.303321   0.037979
    14  C   -0.010512   0.567548  -5.870210  -1.142104 -13.577806  -0.003657
    15  H    0.001314  -0.014496   0.044185  -0.002154  -0.100757   0.026999
    16  C    0.090058   0.052792  -1.515307   0.338183  -6.526635  -1.975678
    17  H   -0.041733  -0.014527  -0.012434   0.028514  -0.437931   0.096924
    18  C   -0.000995  -1.677657 -25.759111   0.159775   1.833700   0.139716
    19  H   -0.000006  -0.024865  -0.326675  -0.102567   0.219827   0.003242
    20  N   -0.001095  -2.461538  -1.664544  -0.888721  -0.908666  -0.005008
    21  H    0.000472   0.367443   0.536464  -0.347736   0.129445  -0.049625
    22  C    0.001462   0.380249   7.241342   0.104922  -6.637356  -0.746509
    23  H    0.000046   0.007427   0.210410   0.018993  -0.007974  -0.014825
    24  C    0.374164   0.000011  -0.004123  -0.000229   0.028036  -3.874902
    25  H   -0.045315   0.000012   0.000127  -0.000022   0.000867  -0.012919
    26  C   -0.001487  -1.545071 -12.993861   0.235573  -7.998628   0.200020
    27  H   -0.000034   0.103409   0.496825  -0.241362  -0.233397  -0.004113
    28  C    0.091864  -0.000058  -0.021768  -0.000138  -0.010748  -3.576576
    29  H   -0.003069   0.000000  -0.001043  -0.000009   0.003478   0.101240
    30  C    0.002247   3.487886   3.088611 -15.223726   2.325852  -0.017104
    31  H    0.000064  -0.501905  -0.129561   0.169727  -0.000705   0.002044
    32  C    0.161920  -0.000117   0.006404   0.000247  -0.032252  -1.356494
    33  H    0.005328  -0.000005   0.000214   0.000006  -0.000333  -0.002597
    34  C    0.166006  -0.000912   0.205783   0.000561   0.022589  -5.168667
    35  H    0.000227   0.000076   0.023258  -0.000307  -0.082428  -0.251976
    36  C   -0.000545  -3.420021  -4.907527 -10.927879  -1.052982   0.005957
    37  H    0.000003  -0.140657  -0.171085  -0.089510   0.019896   0.000415
    38  C    0.000065  -0.231479  -0.912953  -2.945063   0.035326   0.000743
    39  H   -0.000002  -0.042265  -0.041166   0.062855   0.000251   0.000051
    40  C    0.000719   2.127838   1.842234  -6.173448   0.119517  -0.007432
    41  H    0.000001   0.060560   0.039402   0.069446  -0.005158  -0.000385
    42  C   -0.000009  -1.615631   1.044679  -7.916492   0.018601  -0.001430
    43  H    0.000001   0.017294   0.066778  -0.073798  -0.001580  -0.000040
               7          8          9         10         11         12
     1  Br   0.000026  -0.870127  -0.000092   0.031127  -0.108962  -0.001294
     2  S    1.292624  -0.002528  -1.306888  -0.160552   0.007136  -0.000012
     3  C    1.176968  -0.162825  -0.645282  -3.857696  -4.499801  -0.155202
     4  C   -0.571123   0.010595   0.770945   2.466912   0.705970   0.001747
     5  C    0.189529  -0.817821   0.148307  -2.554677 -11.455180   0.550622
     6  C   -0.001192   4.437296   0.002312   0.020212  -9.841957  -0.034730
     7  O    9.111173  -0.000077  -0.675708  -0.242403  -0.055658  -0.000155
     8  C   -0.000077  27.450052  -0.000239  -1.738094  -4.381738   0.152444
     9  O   -0.675708  -0.000239   9.409658  -0.383988  -0.022063  -0.001224
    10  C   -0.242403  -1.738094  -0.383988  36.990407   7.069754   0.988096
    11  C   -0.055658  -4.381738  -0.022063   7.069754  33.440957   1.462477
    12  H   -0.000155   0.152444  -0.001224   0.988096   1.462477   1.251172
    13  O    0.008110  -0.010697  -0.003761   0.369689  -0.535382  -0.013184
    14  C    0.063214  -0.428946   0.042916  -9.732047  -5.830599  -0.955559
    15  H    0.000497  -0.015240   0.000420  -0.372494  -0.360989  -0.173502
    16  C   -0.014771  -5.273321  -0.007733 -13.382908   5.286143  -0.604881
    17  H   -0.001122  -0.067476   0.002609   0.043395   0.196568  -0.002155
    18  C   -0.591298   0.003221   0.188503   1.408549   0.696509   0.094149
    19  H   -0.006110   0.000238   0.002534  -0.019541  -0.005428   0.001977
    20  N   -0.326706  -0.004788   0.150453   1.690458   0.535083   0.025072
    21  H    0.155760   0.000910  -0.168927  -0.175956  -0.167192  -0.011591
    22  C    0.064381  -0.115939  -0.024664  -1.778390  -1.141282  -0.224202
    23  H    0.001351  -0.002630  -0.000506   0.035188  -0.010110   0.008030
    24  C    0.000001   0.819354  -0.000011   0.149965  -0.665449  -0.052761
    25  H    0.000000  -0.044854   0.000000   0.010366  -0.001667   0.003639
    26  C   -0.858217  -0.016991   0.900138  -7.434283  -1.679191  -0.286416
    27  H   -0.003770  -0.000565   0.003312  -0.173487  -0.072515  -0.007620
    28  C    0.000003   0.328925  -0.000003  -0.020964   0.583865   0.019359
    29  H    0.000000   0.112783  -0.000000   0.023517   0.033546   0.026043
    30  C    1.805471  -0.007395  -1.865310  -2.191442  -0.605748  -0.002337
    31  H   -0.052105  -0.000777   0.071380  -0.006504  -0.003021  -0.000179
    32  C   -0.000001  -2.223708   0.000003  -0.305309  -0.828491  -0.076783
    33  H   -0.000000  -0.049235   0.000000  -0.001587  -0.024158  -0.005818
    34  C   -0.000017 -11.604926   0.000215  -1.265458  -1.140528  -0.693652
    35  H   -0.000009  -0.204366   0.000039  -0.178780  -0.388418  -0.216686
    36  C   -2.246140   0.000340   1.725359   0.561751   0.193666  -0.002518
    37  H   -0.031633   0.000028  -0.008501   0.008548   0.004471   0.000392
    38  C   -0.078317   0.000008   0.065738  -0.169872  -0.021885  -0.001233
    39  H   -0.003165  -0.000003   0.004225  -0.004192  -0.000375  -0.000028
    40  C    0.291142   0.000783  -0.647358   0.130174  -0.022192   0.002083
    41  H    0.003241   0.000097  -0.011206   0.015499   0.002814   0.000152
    42  C   -0.314260  -0.000317   0.304078  -0.032343  -0.006391   0.000470
    43  H    0.003041  -0.000002  -0.001410   0.001582   0.000064  -0.000000
              13         14         15         16         17         18
     1  Br   0.003624  -0.010512   0.001314   0.090058  -0.041733  -0.000995
     2  S    0.092067   0.567548  -0.014496   0.052792  -0.014527  -1.677657
     3  C    0.090622  -5.870210   0.044185  -1.515307  -0.012434 -25.759111
     4  C   -0.016133  -1.142104  -0.002154   0.338183   0.028514   0.159775
     5  C    0.303321 -13.577806  -0.100757  -6.526635  -0.437931   1.833700
     6  C    0.037979  -0.003657   0.026999  -1.975678   0.096924   0.139716
     7  O    0.008110   0.063214   0.000497  -0.014771  -0.001122  -0.591298
     8  C   -0.010697  -0.428946  -0.015240  -5.273321  -0.067476   0.003221
     9  O   -0.003761   0.042916   0.000420  -0.007733   0.002609   0.188503
    10  C    0.369689  -9.732047  -0.372494 -13.382908   0.043395   1.408549
    11  C   -0.535382  -5.830599  -0.360989   5.286143   0.196568   0.696509
    12  H   -0.013184  -0.955559  -0.173502  -0.604881  -0.002155   0.094149
    13  O    7.812497  -0.049944   0.003889   0.254007  -0.004192  -0.090805
    14  C   -0.049944  35.617469   1.064853  -3.562666   0.009759   2.533888
    15  H    0.003889   1.064853   0.632210  -0.023085  -0.001978  -0.041378
    16  C    0.254007  -3.562666  -0.023085  31.494729   0.536950  -0.015120
    17  H   -0.004192   0.009759  -0.001978   0.536950   0.670697   0.023439
    18  C   -0.090805   2.533888  -0.041378  -0.015120   0.023439  36.508339
    19  H    0.000117  -0.017785   0.005288  -0.004682   0.000122   0.978428
    20  N   -0.047074  -0.914011  -0.014485  -0.018813   0.008370   0.522663
    21  H    0.069406   0.323162   0.005512  -0.204859  -0.017296  -0.514150
    22  C    0.007973  -1.414083  -0.351440  -0.711743  -0.049776  -5.678644
    23  H    0.000110  -0.176980  -0.037302  -0.002408  -0.000636  -0.317056
    24  C   -0.005435   0.050001   0.001888  -3.081049  -0.194415  -0.000855
    25  H    0.000074   0.001382  -0.000343  -0.016997   0.004992  -0.000003
    26  C   -0.110404  10.066209   0.409719  -0.033844   0.043373  -3.627235
    27  H    0.008363   0.237127   0.009759  -0.005535   0.000401  -0.976259
    28  C   -0.001648  -0.072583   0.006409   0.571364   0.026792  -0.003644
    29  H    0.000032  -0.001898  -0.002485  -0.027632   0.001581   0.000016
    30  C   -0.068339   1.180083  -0.035672  -0.224924  -0.029195  -1.747218
    31  H   -0.014100  -0.006400   0.000068   0.004752  -0.001203   0.070869
    32  C   -0.001460  -0.038353   0.007789  -0.210131  -0.044229   0.001314
    33  H   -0.000040  -0.000610   0.000521  -0.023888  -0.000460   0.000032
    34  C   -0.001479   0.152578   0.085763   4.867128   0.041898   0.003697
    35  H    0.000410   0.121363   0.024318   0.178372   0.005340  -0.003707
    36  C    0.029233  -0.357394   0.039268   0.030194   0.011480   2.836322
    37  H   -0.001202  -0.005468  -0.000846   0.001178  -0.000035   0.188013
    38  C   -0.001195   0.159365   0.001931  -0.003346  -0.000249   0.467983
    39  H   -0.000084   0.004627   0.000074  -0.000109   0.000043   0.025554
    40  C    0.019878  -0.106665  -0.001836  -0.009808  -0.008271  -0.776091
    41  H    0.000839  -0.010271  -0.000129   0.000772  -0.000102  -0.016940
    42  C   -0.004554  -0.121190   0.000016  -0.012283   0.000519  -0.169337
    43  H    0.000079  -0.005505   0.000032  -0.000056  -0.000019  -0.051678
              19         20         21         22         23         24
     1  Br  -0.000006  -0.001095   0.000472   0.001462   0.000046   0.374164
     2  S   -0.024865  -2.461538   0.367443   0.380249   0.007427   0.000011
     3  C   -0.326675  -1.664544   0.536464   7.241342   0.210410  -0.004123
     4  C   -0.102567  -0.888721  -0.347736   0.104922   0.018993  -0.000229
     5  C    0.219827  -0.908666   0.129445  -6.637356  -0.007974   0.028036
     6  C    0.003242  -0.005008  -0.049625  -0.746509  -0.014825  -3.874902
     7  O   -0.006110  -0.326706   0.155760   0.064381   0.001351   0.000001
     8  C    0.000238  -0.004788   0.000910  -0.115939  -0.002630   0.819354
     9  O    0.002534   0.150453  -0.168927  -0.024664  -0.000506  -0.000011
    10  C   -0.019541   1.690458  -0.175956  -1.778390   0.035188   0.149965
    11  C   -0.005428   0.535083  -0.167192  -1.141282  -0.010110  -0.665449
    12  H    0.001977   0.025072  -0.011591  -0.224202   0.008030  -0.052761
    13  O    0.000117  -0.047074   0.069406   0.007973   0.000110  -0.005435
    14  C   -0.017785  -0.914011   0.323162  -1.414083  -0.176980   0.050001
    15  H    0.005288  -0.014485   0.005512  -0.351440  -0.037302   0.001888
    16  C   -0.004682  -0.018813  -0.204859  -0.711743  -0.002408  -3.081049
    17  H    0.000122   0.008370  -0.017296  -0.049776  -0.000636  -0.194415
    18  C    0.978428   0.522663  -0.514150  -5.678644  -0.317056  -0.000855
    19  H    0.498255  -0.000224  -0.008153  -0.343441  -0.032428  -0.000007
    20  N   -0.000224  10.541772   0.033890  -0.362572  -0.004061  -0.000402
    21  H   -0.008153   0.033890   0.492889   0.242293   0.005150   0.003627
    22  C   -0.343441  -0.362572   0.242293  19.938822   0.723525   0.009081
    23  H   -0.032428  -0.004061   0.005150   0.723525   0.476589   0.000022
    24  C   -0.000007  -0.000402   0.003627   0.009081   0.000022  12.220567
    25  H   -0.000000   0.000025   0.000016   0.000162   0.000005   0.468089
    26  C   -0.137170   0.215315  -0.334673  -2.364776  -0.109903   0.000455
    27  H   -0.034353   0.029856   0.011104  -0.021922   0.002689   0.000040
    28  C   -0.000165   0.000295  -0.001603   0.042665  -0.000075  -0.656839
    29  H    0.000005   0.000054   0.000037  -0.000473   0.000036   0.014119
    30  C   -0.084438  -1.731513   0.389855   0.976554   0.030708   0.000243
    31  H    0.000498   0.087029  -0.041951  -0.009558  -0.000214  -0.000014
    32  C    0.000019  -0.000292  -0.001438  -0.009716  -0.000379   1.323074
    33  H    0.000001  -0.000003  -0.000027  -0.000364  -0.000019  -0.051403
    34  C   -0.000540  -0.008602  -0.020885   0.116147  -0.000811  -0.443725
    35  H   -0.000228  -0.001951   0.000328   0.018147  -0.000483   0.085207
    36  C    0.149766   2.583595  -0.328880  -1.131334  -0.044650  -0.000083
    37  H    0.003840   0.020360  -0.009159   0.007441   0.000183  -0.000001
    38  C    0.013471   0.044015  -0.006865  -0.054766  -0.002769   0.000018
    39  H    0.000642   0.001292  -0.001633  -0.003111  -0.000153   0.000000
    40  C   -0.004343  -0.222965   0.208797   0.092209   0.002234   0.000145
    41  H   -0.000211  -0.008798   0.003709   0.001940   0.000089   0.000001
    42  C    0.015495   0.200467  -0.052519  -0.012542  -0.003060  -0.000014
    43  H   -0.001816  -0.003538   0.002185   0.004203   0.000175  -0.000000
              25         26         27         28         29         30
     1  Br  -0.045315  -0.001487  -0.000034   0.091864  -0.003069   0.002247
     2  S    0.000012  -1.545071   0.103409  -0.000058   0.000000   3.487886
     3  C    0.000127 -12.993861   0.496825  -0.021768  -0.001043   3.088611
     4  C   -0.000022   0.235573  -0.241362  -0.000138  -0.000009 -15.223726
     5  C    0.000867  -7.998628  -0.233397  -0.010748   0.003478   2.325852
     6  C   -0.012919   0.200020  -0.004113  -3.576576   0.101240  -0.017104
     7  O    0.000000  -0.858217  -0.003770   0.000003   0.000000   1.805471
     8  C   -0.044854  -0.016991  -0.000565   0.328925   0.112783  -0.007395
     9  O    0.000000   0.900138   0.003312  -0.000003  -0.000000  -1.865310
    10  C    0.010366  -7.434283  -0.173487  -0.020964   0.023517  -2.191442
    11  C   -0.001667  -1.679191  -0.072515   0.583865   0.033546  -0.605748
    12  H    0.003639  -0.286416  -0.007620   0.019359   0.026043  -0.002337
    13  O    0.000074  -0.110404   0.008363  -0.001648   0.000032  -0.068339
    14  C    0.001382  10.066209   0.237127  -0.072583  -0.001898   1.180083
    15  H   -0.000343   0.409719   0.009759   0.006409  -0.002485  -0.035672
    16  C   -0.016997  -0.033844  -0.005535   0.571364  -0.027632  -0.224924
    17  H    0.004992   0.043373   0.000401   0.026792   0.001581  -0.029195
    18  C   -0.000003  -3.627235  -0.976259  -0.003644   0.000016  -1.747218
    19  H   -0.000000  -0.137170  -0.034353  -0.000165   0.000005  -0.084438
    20  N    0.000025   0.215315   0.029856   0.000295   0.000054  -1.731513
    21  H    0.000016  -0.334673   0.011104  -0.001603   0.000037   0.389855
    22  C    0.000162  -2.364776  -0.021922   0.042665  -0.000473   0.976554
    23  H    0.000005  -0.109903   0.002689  -0.000075   0.000036   0.030708
    24  C    0.468089   0.000455   0.000040  -0.656839   0.014119   0.000243
    25  H    0.430152   0.000025   0.000000   0.005428   0.005778   0.000016
    26  C    0.000025  32.580823   0.895968  -0.006201  -0.000404  -3.190073
    27  H    0.000000   0.895968   0.649750  -0.000049  -0.000010  -0.167525
    28  C    0.005428  -0.006201  -0.000049  10.107582   0.404974   0.000011
[...]
 130,-0.00025415,-0.00028796,0.00000490,0.00024994,0.00003466,-0.000007
 35,0.00001493,-0.00015795,-0.00075301,-0.00067591,0.00001566,-0.000023
 03,-0.00005098,0.00386193,0.00309499,0.00214004,0.00052492,-0.00042351
 ,0.00029287,-0.07653439,0.06292595,-0.08919844,0.08098067,-0.07129719,
 0.08757059,-0.00040956,-0.00052022,0.00033620,-0.00260675,-0.00393734,
 0.00649875,-0.00013997,0.00049035,-0.00064586,-0.05590450,0.00416575,0
 .01557260,0.00016123,0.00016424,0.00021673,-0.00095409,-0.00038978,-0.
 00163852,-0.00184721,0.00061587,-0.00121336,-0.00137811,0.00013251,-0.
 00225613,0.00184683,0.00031202,-0.00099223,-0.00109352,-0.00018409,0.0
 0020876,0.00007684,-0.00016307,-0.00052510,-0.00007253,-0.00009751,-0.
 00001516,0.00033807,-0.00001763,-0.00035648,0.00001873,0.00003122,-0.0
 0001788,-0.00002407,0.00000076,0.00004195,0.00041717,-0.00005222,0.000
 13674,0.00011001,0.00004681,0.00004242,0.00001926,0.00000415,-0.000032
 85,-0.00000075,0.00001220,0.00000379,0.00008852,0.00117028,0.00059787,
 -0.00032116,0.00012592,0.00009956,0.00001131,0.00001847,0.00002583,0.0
 0000798,-0.00000264,0.00000271,0.00037547,-0.00049835,0.00041178,-0.00
 011441,-0.00001534,-0.00002975,0.00005916,-0.00010937,-0.00000674,0.00
 003757,-0.00001672,-0.00001955,-0.00072605,0.00001113,0.00034286,-0.00
 000004,0.00003937,0.00005565,-0.25188814,0.12346938,-0.08003363,0.0083
 6183,-0.00361929,0.00299695,0.00035889,0.00029576,-0.00070576,0.000021
 04,-0.00001035,0.00001880,-0.00002160,-0.00065655,0.00054337,0.0000176
 4,-0.00002638,0.00008206,-0.00984196,0.01815669,-0.02049229,0.00030778
 ,0.00005331,-0.00094278,-0.13342602,-0.03212079,0.06274433,0.00728419,
 0.01567679,-0.01960597,0.71253333,-0.00180412,-0.00122015,-0.00094882,
 -0.00175691,0.00647759,0.00195200,0.00040159,-0.00046697,0.00005487,0.
 03995523,0.02608260,-0.03486737,0.00028920,0.00001025,-0.00015052,-0.0
 0036159,0.00002425,-0.00086228,0.00139028,-0.00117985,-0.00058218,-0.0
 0025805,-0.00067035,0.00067958,0.00059540,-0.00029685,0.00008223,-0.00
 071082,0.00084083,-0.00024871,0.00105681,-0.00069213,-0.00010419,-0.00
 010237,0.00014474,0.00014961,-0.00001221,-0.00016595,0.00059701,0.0000
 0121,-0.00015639,-0.00004551,0.00001218,-0.00007134,-0.00000184,-0.000
 04876,-0.00080872,-0.00102412,-0.00003591,0.00006097,0.00000584,0.0000
 5960,0.00006139,-0.00007405,0.00000760,-0.00003036,-0.00000566,-0.0011
 9156,0.00113457,-0.00076004,-0.00016587,-0.00019183,0.00002152,0.00009
 387,0.00005992,0.00009193,0.00000750,0.00000318,-0.00001406,-0.0000844
 8,0.00024011,-0.00013106,-0.00004115,-0.00005296,-0.00001719,-0.000063
 16,0.00004481,0.00009221,-0.00000298,0.00001909,0.00002002,0.00001755,
 -0.00004892,-0.00010400,-0.00001264,-0.00000118,-0.00001549,0.07613034
 ,-0.15549549,0.08303314,0.01431480,-0.00393101,0.00467757,-0.00004283,
 0.00007579,0.00015101,-0.00002509,0.00000697,-0.00003035,-0.00012430,-
 0.00017027,0.00009030,0.00003348,0.00004684,0.00010891,0.01711809,-0.0
 3880933,0.03245783,0.00048663,-0.00088412,0.00022487,0.01665700,-0.170
 27498,0.12341427,-0.00378644,-0.00517064,0.01165106,-0.08003838,0.3729
 8816,-0.00017292,-0.00001478,-0.00043684,0.00408977,0.00174640,0.00118
 335,-0.00008685,0.00071592,-0.00131247,-0.02856689,-0.02436338,0.04504
 452,0.00042014,-0.00010026,-0.00002020,-0.00169768,-0.00056544,-0.0016
 5615,0.00146949,0.00026074,0.00081781,-0.00097960,-0.00059338,-0.00057
 826,-0.00123459,-0.00060051,0.00099702,-0.00035932,-0.00005654,-0.0001
 0199,0.00051191,0.00037997,-0.00056435,0.00011452,-0.00010582,-0.00022
 420,0.00004527,0.00014942,-0.00020357,-0.00006144,-0.00011234,0.000250
 13,-0.00002686,0.00002554,0.00003381,-0.00042589,-0.00048645,-0.000542
 06,-0.00002018,-0.00000850,0.00008521,-0.00008139,0.00002988,-0.000118
 79,-0.00000665,0.00001910,0.00001044,-0.00119915,0.00070831,0.00143366
 ,0.00007056,-0.00012094,-0.00005332,0.00007236,0.00000057,0.00006485,-
 0.00000108,0.00000542,0.00000968,0.00031587,-0.00052866,0.00011515,0.0
 0007518,0.00000990,0.00003287,-0.00006104,-0.00027047,0.00011460,0.000
 00632,0.00002148,-0.00000170,-0.00027226,0.00029953,0.00011833,-0.0000
 1404,-0.00000204,-0.00002253,-0.02207787,0.06705756,-0.13170028,-0.018
 29271,0.01127853,-0.00231107,0.00020739,0.00012297,-0.00021523,-0.0000
 0331,0.00001107,-0.00002432,0.00039613,-0.00052467,0.00043748,0.000003
 32,-0.00002927,-0.00007469,-0.01845900,0.03059554,-0.03805026,-0.00089
 973,-0.00033209,-0.00101966,0.00625488,0.14017689,-0.22949893,0.003293
 83,0.00583808,-0.00353906,-0.09880555,-0.25115950,0.47033784,-0.001944
 50,-0.00207583,-0.00085094,0.00024146,-0.00087676,0.00095295,0.0000785
 5,0.00005014,-0.00025792,-0.00165906,0.00380538,-0.00145467,0.00005473
 ,-0.00000759,-0.00000277,0.00002764,0.00003678,0.00022743,-0.00059054,
 -0.00005945,-0.00017845,-0.00031628,-0.00038538,-0.00055054,0.00005893
 ,0.00021365,-0.00029329,-0.00005937,-0.00000339,0.00000185,0.00002703,
 0.00001137,-0.00002845,0.00000988,0.00000245,0.00000256,0.00004468,0.0
 0001279,-0.00000629,-0.00001725,-0.00002384,0.00003570,0.00000008,0.00
 000047,0.00000419,-0.00006660,0.00001509,0.00015722,0.00000543,0.00002
 392,0.00002059,-0.00000013,0.00001351,-0.00003736,-0.00000307,-0.00000
 107,0.00000243,-0.00016148,0.00038313,0.00014891,-0.00004618,-0.000036
 01,0.00001736,0.00002800,0.00000165,0.00002735,0.00000143,0.00000083,0
 .00000275,0.00014709,-0.00009715,0.00027811,-0.00006268,-0.00001999,-0
 .00000478,-0.00004579,-0.00004317,0.00004001,0.00001366,-0.00000047,-0
 .00000680,-0.00004574,-0.00002723,0.00001207,-0.00000696,0.00000187,0.
 00000498,-0.01621508,-0.00328707,0.01073036,0.00041504,-0.00064103,-0.
 00065942,0.00009430,0.00015784,-0.00008604,0.00000553,-0.00000134,0.00
 000428,-0.00004369,-0.00001342,0.00000832,-0.00000095,0.00000014,-0.00
 000077,0.00042003,0.00016058,-0.00074338,-0.00009622,-0.00017957,-0.00
 008796,0.00060865,0.00130912,-0.00051415,0.00024171,-0.00093678,-0.000
 30793,-0.28908802,-0.01648787,0.10845971,0.30601332,-0.00172129,-0.001
 88967,-0.00021624,0.00015062,0.00099966,-0.00044931,-0.00004326,-0.000
 01020,0.00015879,0.00384909,0.00239944,0.00436857,-0.00003495,-0.00004
 196,-0.00006446,0.00011794,-0.00009612,0.00040610,0.00077013,-0.000099
 48,0.00016338,-0.00012092,0.00073481,-0.00097397,-0.00010110,-0.000167
 52,0.00016077,0.00032073,-0.00008776,0.00011377,-0.00018751,0.00002121
 ,0.00005814,-0.00001636,-0.00002440,-0.00001051,-0.00015489,0.00006748
 ,-0.00007486,-0.00003421,0.00000605,0.00002470,0.00000374,-0.00000057,
 -0.00002217,0.00013383,0.00004266,-0.00002706,0.00005548,-0.00009773,-
 0.00000177,-0.00002094,0.00000321,-0.00000262,0.00000045,0.00000134,-0
 .00000267,0.00003630,-0.00027614,-0.00008820,0.00007860,0.00003352,0.0
 0000399,0.00001032,0.00002082,-0.00002603,0.00000063,-0.00000417,-0.00
 000234,-0.00010615,-0.00016159,0.00006006,0.00005294,0.00006257,0.0000
 0751,0.00000152,-0.00001310,-0.00001648,-0.00001576,0.00000379,0.00001
 120,0.00007484,-0.00018383,0.00007643,0.00000674,-0.00000088,0.0000035
 1,0.01561092,0.00534330,-0.00766625,-0.00102601,-0.00209965,-0.0020868
 2,-0.00004736,-0.00012723,0.00006250,0.00001618,-0.00002281,0.00003934
 ,-0.00012707,0.00014934,-0.00015287,-0.00000879,-0.00002171,0.00002512
 ,0.00013621,-0.00141001,0.00020681,-0.00014011,-0.00049949,-0.00052958
 ,-0.01799476,0.00267100,0.00727461,-0.00044527,-0.00200401,-0.00209659
 ,-0.01716879,-0.04830890,0.01889939,0.01822422,0.04318903,-0.00027112,
 -0.00057179,0.00038037,-0.00041610,-0.00008201,0.00060887,0.00002832,0
 .00005387,-0.00007798,-0.00146789,0.00433482,0.00278365,-0.00003053,-0
 .00002171,-0.00004537,0.00024269,0.00003459,-0.00013309,-0.00017746,-0
 .00012415,-0.00013921,-0.00031157,-0.00008357,-0.00061001,0.00011001,0
 .00005280,-0.00014580,0.00032606,-0.00018090,0.00019380,-0.00034050,0.
 00014819,0.00001064,0.00000087,0.00000246,0.00002023,-0.00010481,0.000
 10558,-0.00013942,-0.00002168,-0.00000478,0.00003587,0.00000646,0.0000
 0905,-0.00001243,0.00019858,-0.00012881,-0.00001867,0.00002403,-0.0000
 7226,-0.00001614,-0.00002548,-0.00000373,-0.00003094,-0.00000408,0.000
 00337,0.00000014,-0.00004644,0.00014261,0.00006410,0.00001003,0.000019
 83,0.00003665,0.00002043,0.00000739,0.00000230,-0.00000226,0.00000112,
 0.00000451,-0.00011775,0.00018050,0.00004138,-0.00004919,-0.00001251,-
 0.00000044,-0.00003854,-0.00004159,0.00001801,-0.00000427,0.00000057,0
 .00000239,-0.00003955,-0.00011773,0.00002327,0.00000590,-0.00000057,0.
 00002288,-0.01206373,-0.00035006,0.00819360,-0.00029164,-0.00229443,-0
 .00128558,0.00004649,0.00012745,-0.00010008,0.00000433,-0.00001710,0.0
 0001479,-0.00007013,0.00007708,-0.00006274,-0.00000533,0.00000332,0.00
 004348,-0.00088630,0.00006576,-0.00092713,-0.00006648,-0.00053112,-0.0
 0038791,0.02233101,0.00055462,-0.00496947,-0.00080224,-0.00216407,-0.0
 0115735,0.10833663,0.01857503,-0.09762389,-0.11597651,-0.02418435,0.09
 616137,-0.00033751,-0.00006817,-0.00004062,0.00415333,-0.00066670,0.00
 257587,0.00037783,-0.00058780,0.00062001,0.04941041,0.04161244,-0.0597
 7505,0.00028293,0.00017451,-0.00044581,0.00075007,-0.00002587,0.000452
 37,0.00078352,-0.00019949,-0.00055554,-0.00002933,0.00020048,0.0006339
 0,0.00010795,-0.00020201,0.00082338,-0.00075322,0.00085916,-0.00017880
 ,0.00115818,0.00040358,-0.00001445,0.00005385,-0.00012096,-0.00034348,
 0.00023295,0.00043722,0.00039321,-0.00000216,-0.00050632,-0.00015705,0
 .00000439,-0.00004394,0.00004012,-0.00090728,0.00013600,0.00138016,-0.
 00002834,0.00009823,-0.00007233,0.00008483,0.00019035,-0.00033555,0.00
 001809,-0.00004932,-0.00000775,-0.00126066,0.00072399,-0.00127184,0.00
 003875,-0.00029064,0.00001972,0.00018263,-0.00001127,0.00006957,0.0000
 0507,0.00000286,-0.00000238,-0.00009224,0.00007321,-0.00008020,0.00001
 429,-0.00002352,-0.00000042,-0.00007811,0.00027776,0.00028288,0.000031
 80,-0.00003419,0.00001526,-0.00003995,-0.00002278,-0.00003080,0.000042
 18,0.00000502,0.00004201,-0.07511193,0.01563880,0.00108829,-0.00122927
 ,0.00040510,-0.00037753,0.00002880,-0.00020422,-0.00002221,0.00001418,
 0.00001857,0.00000903,0.00001860,0.00034976,0.00000377,0.00006029,0.00
 007735,0.00008474,-0.25336412,0.06615494,-0.02686989,-0.01370896,0.015
 10130,-0.01121208,-0.29869304,0.02089483,0.05951810,-0.01510033,-0.003
 78436,0.01056315,0.02206051,-0.06233517,0.06485346,0.00198125,0.000713
 44,0.00081475,0.64152827,0.00019093,0.00011386,-0.00004025,-0.00483381
 ,0.00217757,0.00553731,0.00013664,0.00016141,-0.00031776,0.00420618,-0
 .02136904,0.03321465,0.00016451,-0.00012840,-0.00025656,0.00020964,-0.
 00039465,-0.00010636,0.00127459,0.00112414,-0.00114599,-0.00015176,-0.
 00010997,0.00010729,0.00148892,-0.00160762,0.00092687,0.00010985,-0.00
 057570,0.00023416,-0.00079964,-0.00111294,-0.00087795,-0.00021289,-0.0
 0067985,-0.00071563,0.00006889,0.00001576,-0.00032720,-0.00033313,0.00
 004991,0.00026667,-0.00000206,0.00007099,0.00003351,-0.00038074,-0.000
 62859,-0.00017506,0.00003747,0.00003550,0.00006101,-0.00012185,0.00009
 969,-0.00035448,-0.00000527,0.00001190,-0.00000197,-0.00050900,0.00077
 907,-0.00010881,-0.00002899,0.00000797,0.00009804,0.00029461,0.0000149
 3,0.00003435,-0.00002488,0.00002264,0.00003241,0.00007472,-0.00019130,
 0.00023967,-0.00001474,-0.00001384,-0.00000166,-0.00024491,-0.00012920
 ,0.00032403,0.00000094,-0.00002727,0.00000881,-0.00002769,0.00013446,-
 0.00005901,0.00003537,-0.00000316,0.00002903,0.01863563,-0.00850045,-0
 .00385119,0.00039205,-0.00040066,-0.00075925,0.00011868,0.00015990,-0.
 00006079,-0.00001982,0.00000165,-0.00001871,0.00032975,-0.00009475,-0.
 00001658,0.00007128,0.00009179,0.00007546,0.11734385,-0.14358212,0.065
 99802,-0.00412038,0.00588619,-0.00157244,-0.02822753,-0.09376441,0.048
 76225,0.01545106,0.00520820,-0.00710537,-0.02608167,0.01592537,-0.0012
 7741,0.00065547,0.00193993,0.00644178,-0.07379815,0.38978782,0.0001184
 7,0.00003581,0.00019514,0.00400703,0.00559007,-0.00144360,0.00017870,0
 .00032893,-0.00059474,-0.01668828,0.02137465,-0.01299477,0.00014457,-0
 .00012644,-0.00004498,0.00061935,-0.00063874,0.00004165,0.00009345,-0.
 00117434,0.00064961,-0.00016152,0.00041066,-0.00053385,-0.00134973,0.0
 0050504,-0.00127829,-0.00040300,0.00069288,-0.00030118,-0.00043577,-0.
 00105496,-0.00107244,-0.00031524,-0.00135227,-0.00031454,0.00021481,-0
 .00032315,0.00040802,-0.00015237,-0.00004823,0.00016557,-0.00004423,-0
 .00003332,0.00003989,-0.00035096,-0.00038203,-0.00019433,0.00003297,0.
 00016591,0.00015498,0.00002423,-0.00003987,0.00006089,0.00000613,-0.00
 000415,0.00000899,-0.00100540,0.00078358,0.00072474,-0.00003635,-0.000
 18278,-0.00006425,-0.00000463,0.00011310,0.00018352,0.00002321,-0.0000
 1138,-0.00003876,0.00004035,-0.00016928,0.00003606,-0.00000813,0.00002
 310,-0.00000960,-0.00007063,-0.00022012,0.00006719,0.00000704,0.000020
 88,-0.00000639,-0.00005080,-0.00002696,0.00012521,-0.00005573,0.000028
 77,-0.00004759,-0.00117915,-0.00346740,-0.00288100,-0.00032046,-0.0010
 7880,-0.00007736,0.00004280,-0.00008727,-0.00001125,-0.00000501,-0.000
 00140,0.00000926,-0.00006502,0.00009124,0.00019990,0.00012910,-0.00010
 439,0.00004179,-0.08220569,0.07992921,-0.13240657,0.01006802,-0.006310
 46,0.00924661,0.11626474,0.03235931,-0.14050353,-0.01208130,-0.0001787
 3,0.00890839,0.02556018,0.01043631,-0.01441886,0.00102098,0.00621384,-
 0.00041404,-0.07583220,-0.28505392,0.50742232,-0.00000462,0.00005918,-
 0.00012883,0.00116255,0.00023957,-0.00064244,0.00011560,0.00005376,-0.
 00019465,-0.00290494,0.00372650,-0.00129563,-0.00003776,0.00001665,0.0
 0002943,0.00003760,0.00001747,0.00008667,-0.00031199,-0.00017523,0.000
 11244,0.00006074,-0.00015728,0.00010911,-0.00030349,0.00041600,-0.0005
 8854,0.00014896,-0.00000244,-0.00002148,-0.00012364,0.00002780,0.00004
 775,0.00006203,-0.00004934,-0.00000324,-0.00005330,0.00002941,0.000009
 54,0.00007675,-0.00002103,-0.00001249,0.00000595,0.00000732,0.00000272
 ,0.00005428,-0.00002163,0.00000761,-0.00000905,0.00001268,-0.00001177,
 -0.00002921,-0.00002718,-0.00005209,-0.00001374,0.00000896,0.00000457,
 -0.00020609,0.00013879,0.00029007,-0.00000836,-0.00004492,0.00000465,0
 .00001010,-0.00008552,0.00003719,-0.00001006,0.00001838,0.00002251,0.0
 0001430,0.00008383,-0.00009407,0.00000848,0.00000438,0.00000055,-0.000
 04998,-0.00005430,0.00003146,0.00000445,0.00000592,-0.00000413,0.00008
 356,0.00009178,-0.00000571,-0.00003992,0.00000072,-0.00005645,-0.00159
 389,0.00024998,-0.00019331,0.00003200,-0.00017195,-0.00014918,-0.00008
 015,0.00001676,0.00009058,-0.00000098,-0.00000331,-0.00000672,0.000056
 19,0.00003629,0.00005176,0.00000117,-0.00008709,-0.00009901,0.00729409
 ,0.01526332,-0.01943939,0.00044024,-0.00090634,-0.00018349,0.00143557,
 -0.01812411,0.02212937,0.00039200,-0.00047648,-0.00092489,-0.00465490,
 0.00086433,0.00314590,-0.00004883,-0.00084937,0.00112500,-0.06268848,-
 0.02135214,0.03422545,0.06167679,0.00003943,0.00004215,-0.00006499,-0.
 00094615,0.00067144,0.00056944,-0.00012696,-0.00016221,0.00032305,0.00
 363683,0.00343541,0.00365819,-0.00006303,0.00002618,0.00009826,-0.0000
 1213,0.00005451,0.00004495,0.00031319,0.00001846,-0.00011315,-0.000005
 08,-0.00010721,0.00005104,0.00023812,-0.00051092,0.00031637,0.00022483
 ,-0.00007395,0.00017011,-0.00011590,-0.00006267,0.00033334,-0.00003390
 ,-0.00022182,-0.00011617,-0.00009310,0.00016450,-0.00023871,-0.0000004
 0,0.00008146,-0.00002841,-0.00000780,-0.00006548,-0.00006575,0.0000229
 7,0.00013043,-0.00007862,0.00003217,-0.00001931,-0.00004569,0.00002984
 ,0.00000032,0.00009440,-0.00000262,-0.00000229,-0.00000657,0.00014972,
 -0.00024278,-0.00038974,0.00004675,0.00004571,0.00001479,-0.00004348,0
 .00007163,-0.00006786,0.00001898,-0.00001615,-0.00001834,0.00003798,0.
 00002154,-0.00007872,0.00000841,0.00000548,0.00000136,0.00003682,0.000
 04750,-0.00008357,-0.00001589,0.00000707,0.00000562,0.00001385,0.00002
 013,-0.00005015,-0.00001993,0.00000930,-0.00000039,0.00016970,-0.00047
 147,-0.00086250,-0.00018201,-0.00058383,-0.00042659,-0.00001764,-0.000
 02065,0.00001408,0.00001853,-0.00000039,-0.00000462,-0.00006619,0.0000
 3964,0.00013228,-0.00005872,-0.00010427,-0.00014863,-0.00391117,-0.005
 90037,0.01185640,-0.00041475,-0.00202485,-0.00228145,0.00144230,0.0022
 3471,0.00085611,-0.00084688,-0.00204735,-0.00199878,0.00073343,0.00485
 125,0.00290024,0.00012401,-0.00004021,0.00004546,-0.02157402,-0.150506
 69,0.14296709,0.02121990,0.15120607,0.00003670,0.00001993,0.00003704,0
 .00105128,-0.00008572,0.00017920,0.00004816,-0.00002272,-0.00012987,-0
 .00167364,0.00403080,0.00320029,-0.00001227,0.00003236,0.00007035,0.00
 000399,-0.00002214,0.00002840,-0.00029761,-0.00006710,-0.00001604,0.00
 001445,-0.00000475,-0.00004709,-0.00015308,0.00008435,-0.00027910,-0.0
 0000778,-0.00001267,-0.00000855,0.00004440,0.00007032,0.00008605,0.000
 03511,0.00016051,0.00000569,0.00000917,0.00001247,0.00000636,-0.000020
 39,0.00005167,0.00000299,-0.00000171,-0.00001007,-0.00000099,-0.000029
 14,-0.00000342,0.00000241,-0.00000660,-0.00002107,-0.00002382,0.000012
 65,0.00000052,0.00000911,-0.00000893,0.00000372,0.00000381,-0.00018200
 ,0.00016336,0.00014191,-0.00000785,-0.00005119,0.00000440,-0.00001636,
 0.00000212,0.00002179,0.00000489,0.00000079,0.00000246,-0.00001071,0.0
 0000176,-0.00001893,-0.00000390,0.00000274,-0.00000323,-0.00003020,-0.
 00003019,0.00002011,0.00000742,0.00000644,-0.00000634,0.00005912,0.000
 02480,0.00000469,-0.00000148,0.00000395,0.00000983,-0.00012337,-0.0010
 1986,0.00004458,-0.00014301,-0.00042021,-0.00044563,-0.00001867,-0.000
 00592,0.00002153,0.00001122,0.00000122,0.00000503,0.00011472,0.0001162
 4,0.00005815,0.00001915,-0.00001564,-0.00003296,0.00364253,0.00596289,
 -0.00512113,-0.00067045,-0.00207810,-0.00129403,-0.00065795,0.00792776
 ,-0.00573528,-0.00027065,-0.00224223,-0.00126533,0.00345906,0.00257985
 ,0.00322592,-0.00011167,0.00035663,-0.00036461,0.03334221,0.14177899,-
 0.21903782,-0.03745682,-0.15728318,0.22663863\\-0.00000309,0.00000473,
 0.00000342,0.00000324,0.00002918,0.00001028,0.00001489,-0.00000118,0.0
 0002044,-0.00000822,-0.00000630,0.00002167,-0.00000944,0.00003158,0.00
 000441,-0.00000670,-0.00000928,-0.00000248,-0.00000464,0.00000726,-0.0
 0000003,0.00000172,0.00000218,-0.00000304,0.00000873,0.00000729,-0.000
 00326,0.00001906,-0.00003701,-0.00001240,-0.00001299,-0.00000394,0.000
 00552,0.00000728,0.00000116,0.00000273,-0.00001386,0.00000522,0.000010
 39,-0.00000661,-0.00000934,-0.00000069,-0.00000691,-0.00001136,0.00000
 312,0.00000696,0.00000436,0.00000281,0.00000014,-0.00000116,0.00000146
 ,-0.00000081,-0.00000487,-0.00000260,-0.00000152,-0.00000277,-0.000000
 14,-0.00001278,-0.00000997,-0.00000702,0.00001301,0.00000467,-0.000004
 41,0.00000088,-0.00000345,0.00000055,-0.00000074,-0.00000791,0.0000000
 5,0.00000076,-0.00000256,0.00000253,0.00000031,0.00000082,-0.00000257,
 0.00000609,-0.00000412,-0.00000125,-0.00000271,0.00000021,-0.00000228,
 -0.00000054,-0.00000178,-0.00000353,0.00000152,-0.00000681,-0.00000309
 ,0.00000231,-0.00000126,0.00000021,-0.00000035,0.00001153,-0.00000067,
 0.00000026,0.00000293,-0.00000495,-0.00000063,-0.00000417,-0.00000380,
 0.00000049,-0.00000916,0.00000207,-0.00000170,-0.00000142,0.00000026,-
 0.00000134,0.00001105,-0.00000826,-0.00000154,0.00000049,0.00000034,0.
 00000026,0.00000352,-0.00000625,0.00000343,0.00000322,-0.00000398,-0.0
 0000213,0.00000727,-0.00000189,0.00000576,0.00000242,-0.00000511,0.000
 00391,0.00000102,-0.00000271,-0.00000177,-0.00000228,-0.00000586\\\@


      TO SUSPECT YOUR OWN MORTALITY IS TO KNOW THE BEGINNING OF TERROR.
      TO LEARN IRREFUTABLY THAT YOU ARE MORTAL IS TO KNOW THE END
      OF TERROR.

                                                  -- JESSICA
                                                     CHILDREN OF DUNE
                                                     BY FRANK HERBERT
 Job cpu time:       1 days 12 hours 37 minutes 51.0 seconds.
 Elapsed time:       0 days  2 hours 17 minutes 53.5 seconds.
 File lengths (MBytes):  RWF=   2179 Int=      0 D2E=      0 Chk=     44 Scr=      1
 Normal termination of Gaussian 16 at Tue Oct  7 20:03:32 2025.
