 Entering Gaussian System, Link 0=g16
 Input=NECP0018.gjf
 Output=NECP0018.log
 Initial command:
 /usr/local/g16/l1.exe "/dados_01/scratch/Gau-2546295.inp" -scrdir="/dados_01/scratch/"
 Entering Link 1 = /usr/local/g16/l1.exe PID=   2546296.
  
 Copyright (c) 1988-2017, Gaussian, Inc.  All Rights Reserved.
  
 This is part of the Gaussian(R) 16 program.  It is based on
 the Gaussian(R) 09 system (copyright 2009, Gaussian, Inc.),
 the Gaussian(R) 03 system (copyright 2003, Gaussian, Inc.),
 the Gaussian(R) 98 system (copyright 1998, Gaussian, Inc.),
 the Gaussian(R) 94 system (copyright 1995, Gaussian, Inc.),
 the Gaussian 92(TM) system (copyright 1992, Gaussian, Inc.),
 the Gaussian 90(TM) system (copyright 1990, Gaussian, Inc.),
 the Gaussian 88(TM) system (copyright 1988, Gaussian, Inc.),
 the Gaussian 86(TM) system (copyright 1986, Carnegie Mellon
 University), and the Gaussian 82(TM) system (copyright 1983,
 Carnegie Mellon University). Gaussian is a federally registered
 trademark of Gaussian, Inc.
  
 This software contains proprietary and confidential information,
 including trade secrets, belonging to Gaussian, Inc.
  
 This software is provided under written license and may be
 used, copied, transmitted, or stored only in accord with that
 written license.
  
 The following legend is applicable only to US Government
 contracts under FAR:
  
                    RESTRICTED RIGHTS LEGEND
  
 Use, reproduction and disclosure by the US Government is
 subject to restrictions as set forth in subparagraphs (a)
 and (c) of the Commercial Computer Software - Restricted
 Rights clause in FAR 52.227-19.
  
 Gaussian, Inc.
 340 Quinnipiac St., Bldg. 40, Wallingford CT 06492
  
  
 ---------------------------------------------------------------
 Warning -- This program may not be used in any manner that
 competes with the business of Gaussian, Inc. or will provide
 assistance to any competitor of Gaussian, Inc.  The licensee
 of this program is prohibited from giving any competitor of
 Gaussian, Inc. access to this program.  By using this program,
 the user acknowledges that Gaussian, Inc. is engaged in the
 business of creating and licensing software in the field of
 computational chemistry and represents and warrants to the
 licensee that it is not a competitor of Gaussian, Inc. and that
 it will not use this program in any manner prohibited above.
 ---------------------------------------------------------------
  

 Cite this work as:
 Gaussian 16, Revision B.01,
 M. J. Frisch, G. W. Trucks, H. B. Schlegel, G. E. Scuseria, 
 M. A. Robb, J. R. Cheeseman, G. Scalmani, V. Barone, 
 G. A. Petersson, H. Nakatsuji, X. Li, M. Caricato, A. V. Marenich, 
 J. Bloino, B. G. Janesko, R. Gomperts, B. Mennucci, H. P. Hratchian, 
 J. V. Ortiz, A. F. Izmaylov, J. L. Sonnenberg, D. Williams-Young, 
 F. Ding, F. Lipparini, F. Egidi, J. Goings, B. Peng, A. Petrone, 
 T. Henderson, D. Ranasinghe, V. G. Zakrzewski, J. Gao, N. Rega, 
 G. Zheng, W. Liang, M. Hada, M. Ehara, K. Toyota, R. Fukuda, 
 J. Hasegawa, M. Ishida, T. Nakajima, Y. Honda, O. Kitao, H. Nakai, 
 T. Vreven, K. Throssell, J. A. Montgomery, Jr., J. E. Peralta, 
 F. Ogliaro, M. J. Bearpark, J. J. Heyd, E. N. Brothers, K. N. Kudin, 
 V. N. Staroverov, T. A. Keith, R. Kobayashi, J. Normand, 
 K. Raghavachari, A. P. Rendell, J. C. Burant, S. S. Iyengar, 
 J. Tomasi, M. Cossi, J. M. Millam, M. Klene, C. Adamo, R. Cammi, 
 J. W. Ochterski, R. L. Martin, K. Morokuma, O. Farkas, 
 J. B. Foresman, and D. J. Fox, Gaussian, Inc., Wallingford CT, 2016.
 
 ******************************************
 Gaussian 16:  ES64L-G16RevB.01 20-Dec-2017
                 8-Oct-2025 
 ******************************************
 %nprocs=16
 Will use up to   16 processors via shared memory.
 %mem=40GB
 %chk=NECP0018.chk
 ----------------------------------------------------------------------
 # opt freq=noraman M08HX/6-311++G** scf=xqc Empiricaldispersion=pfd In
 t(Grid=ultraFine)
 ----------------------------------------------------------------------
 1/18=20,19=15,26=4,38=1/1,3;
 2/9=110,12=2,17=6,18=5,40=1/2;
 3/5=4,6=6,7=1111,11=2,25=1,30=1,71=1,74=-74,75=-5,124=11/1,2,3;
 4//1;
 5/5=2,8=3,13=1,38=5/2,8;
 6/7=2,8=2,9=2,10=2,28=1/1;
 7//1,2,3,16;
 1/18=20,19=15,26=4/3(2);
 2/9=110/2;
 99//99;
 2/9=110/2;
 3/5=4,6=6,7=1111,11=2,25=1,30=1,71=1,74=-74,75=-5,124=11/1,2,3;
 4/5=5,16=3,69=1/1;
 5/5=2,8=3,13=1,38=5/2,8;
 7//1,2,3,16;
 1/18=20,19=15,26=4/3(-5);
 2/9=110/2;
 6/7=2,8=2,9=2,10=2,19=2,28=1/1;
 99/9=1/99;
 --------
 NECP0018
 --------
 Symbolic Z-matrix:
 Charge =  0 Multiplicity = 1
 S                     6.1556    5.7441    10.2952 
 Cl                    16.1024   2.215     3.7683 
 C                     8.5565    6.8575    9.7349 
 O                     8.7054    5.1206    7.4317 
 C                     12.3561   3.7418    5.755 
 O                     5.702     6.798     11.1434 
 C                     9.7426    6.5249    9.0403 
 C                     6.9109    4.5191    11.3011 
 C                     11.0396   5.0851    7.3756 
 H                     11.8244   5.4135    7.7513 
 C                     9.7528    5.55      7.9156 
 N                     7.3301    6.3002    9.3091 
 C                     10.9211   7.1551    9.4507 
 H                     11.7113   6.9719    8.9952 
 O                     5.2362    5.096     9.4092 
 C                     8.6029    7.7454    10.7974 
 H                     7.8214    7.9536    11.2572 
 C                     10.9509   8.0317    10.4994 
 H                     11.7508   8.4312    10.7541 
 C                     13.6039   4.2673    6.0574 
 H                     13.6685   4.9458    6.6902 
 C                     11.1284   4.2222    6.3808 
 H                     10.3285   3.8873    6.045 
 C                     9.7846    8.3188    11.1769 
 H                     9.8015    8.9063    11.8973 
 C                     12.2975   2.7287    4.8075 
 H                     11.4744   2.3599    4.5825 
 C                     6.9397    4.65      12.6642 
 H                     6.5833    5.4056    13.072 
 C                     14.6495   2.8058    4.5223 
 C                     14.7466   3.8102    5.4456 
 H                     15.5739   4.1792    5.6558 
 C                     13.4413   2.2611    4.1944 
 H                     13.3898   1.5803    3.5632 
 C                     7.5057    3.6425    13.4286 
 H                     7.5075    3.7132    14.3556 
 C                     7.4695    3.4074    10.709 
 H                     7.46      3.3146    9.7842 
 C                     8.0422    2.4332    11.4991 
 H                     8.4242    1.6827    11.1045 
 C                     8.0523    2.5651    12.8432 
 H                     8.4414    1.9034    13.368 
 H                     7.4176    5.8001    8.6626 
 

 GradGradGradGradGradGradGradGradGradGradGradGradGradGradGradGradGradGrad
 Berny optimization.
 Initialization pass.
                           ----------------------------
                           !    Initial Parameters    !
                           ! (Angstroms and Degrees)  !
 --------------------------                            --------------------------
 ! Name  Definition              Value          Derivative Info.                !
 --------------------------------------------------------------------------------
 ! R1    R(1,6)                  1.4269         estimate D2E/DX2                !
 ! R2    R(1,8)                  1.7558         estimate D2E/DX2                !
 ! R3    R(1,12)                 1.6313         estimate D2E/DX2                !
 ! R4    R(1,15)                 1.4319         estimate D2E/DX2                !
 ! R5    R(2,30)                 1.7403         estimate D2E/DX2                !
 ! R6    R(3,7)                  1.4142         estimate D2E/DX2                !
 ! R7    R(3,12)                 1.4128         estimate D2E/DX2                !
 ! R8    R(3,16)                 1.3854         estimate D2E/DX2                !
 ! R9    R(4,11)                 1.2311         estimate D2E/DX2                !
 ! R10   R(5,20)                 1.3873         estimate D2E/DX2                !
 ! R11   R(5,22)                 1.4593         estimate D2E/DX2                !
 ! R12   R(5,26)                 1.3884         estimate D2E/DX2                !
 ! R13   R(7,11)                 1.4885         estimate D2E/DX2                !
 ! R14   R(7,13)                 1.398          estimate D2E/DX2                !
 ! R15   R(8,28)                 1.3697         estimate D2E/DX2                !
 ! R16   R(8,37)                 1.3779         estimate D2E/DX2                !
 ! R17   R(9,10)                 0.93           estimate D2E/DX2                !
 ! R18   R(9,11)                 1.4709         estimate D2E/DX2                !
 ! R19   R(9,22)                 1.3199         estimate D2E/DX2                !
 ! R20   R(12,43)                0.822          estimate D2E/DX2                !
 ! R21   R(13,14)                0.9303         estimate D2E/DX2                !
 ! R22   R(13,18)                1.3671         estimate D2E/DX2                !
 ! R23   R(16,17)                0.9303         estimate D2E/DX2                !
 ! R24   R(16,24)                1.3672         estimate D2E/DX2                !
 ! R25   R(18,19)                0.9297         estimate D2E/DX2                !
 ! R26   R(18,24)                1.379          estimate D2E/DX2                !
 ! R27   R(20,21)                0.93           estimate D2E/DX2                !
 ! R28   R(20,31)                1.3744         estimate D2E/DX2                !
 ! R29   R(22,23)                0.9299         estimate D2E/DX2                !
 ! R30   R(24,25)                0.9297         estimate D2E/DX2                !
 ! R31   R(26,27)                0.9296         estimate D2E/DX2                !
 ! R32   R(26,33)                1.3794         estimate D2E/DX2                !
 ! R33   R(28,29)                0.9297         estimate D2E/DX2                !
 ! R34   R(28,35)                1.3855         estimate D2E/DX2                !
 ! R35   R(30,31)                1.3677         estimate D2E/DX2                !
 ! R36   R(30,33)                1.3653         estimate D2E/DX2                !
 ! R37   R(31,32)                0.9299         estimate D2E/DX2                !
 ! R38   R(33,34)                0.9298         estimate D2E/DX2                !
 ! R39   R(35,36)                0.9297         estimate D2E/DX2                !
 ! R40   R(35,41)                1.3425         estimate D2E/DX2                !
 ! R41   R(37,38)                0.9295         estimate D2E/DX2                !
 ! R42   R(37,39)                1.3789         estimate D2E/DX2                !
 ! R43   R(39,40)                0.93           estimate D2E/DX2                !
 ! R44   R(39,41)                1.3506         estimate D2E/DX2                !
 ! R45   R(41,42)                0.9299         estimate D2E/DX2                !
 ! A1    A(6,1,8)              108.1502         estimate D2E/DX2                !
 ! A2    A(6,1,12)             109.6599         estimate D2E/DX2                !
 ! A3    A(6,1,15)             119.8689         estimate D2E/DX2                !
 ! A4    A(8,1,12)             105.9281         estimate D2E/DX2                !
 ! A5    A(8,1,15)             108.3552         estimate D2E/DX2                !
 ! A6    A(12,1,15)            104.0372         estimate D2E/DX2                !
 ! A7    A(7,3,12)             119.1607         estimate D2E/DX2                !
 ! A8    A(7,3,16)             119.9548         estimate D2E/DX2                !
 ! A9    A(12,3,16)            120.8653         estimate D2E/DX2                !
 ! A10   A(20,5,22)            122.5823         estimate D2E/DX2                !
 ! A11   A(20,5,26)            117.5894         estimate D2E/DX2                !
 ! A12   A(22,5,26)            119.8255         estimate D2E/DX2                !
 ! A13   A(3,7,11)             122.0679         estimate D2E/DX2                !
 ! A14   A(3,7,13)             117.1819         estimate D2E/DX2                !
 ! A15   A(11,7,13)            120.7501         estimate D2E/DX2                !
 ! A16   A(1,8,28)             120.8312         estimate D2E/DX2                !
 ! A17   A(1,8,37)             119.414          estimate D2E/DX2                !
 ! A18   A(28,8,37)            119.752          estimate D2E/DX2                !
 ! A19   A(10,9,11)            118.5762         estimate D2E/DX2                !
 ! A20   A(10,9,22)            118.5913         estimate D2E/DX2                !
 ! A21   A(11,9,22)            122.8325         estimate D2E/DX2                !
 ! A22   A(4,11,7)             121.3074         estimate D2E/DX2                !
 ! A23   A(4,11,9)             119.3244         estimate D2E/DX2                !
 ! A24   A(7,11,9)             119.3675         estimate D2E/DX2                !
 ! A25   A(1,12,3)             125.2599         estimate D2E/DX2                !
 ! A26   A(1,12,43)            110.1613         estimate D2E/DX2                !
 ! A27   A(3,12,43)            112.6203         estimate D2E/DX2                !
 ! A28   A(7,13,14)            118.916          estimate D2E/DX2                !
 ! A29   A(7,13,18)            122.1808         estimate D2E/DX2                !
 ! A30   A(14,13,18)           118.9032         estimate D2E/DX2                !
 ! A31   A(3,16,17)            119.6252         estimate D2E/DX2                !
 ! A32   A(3,16,24)            120.7043         estimate D2E/DX2                !
 ! A33   A(17,16,24)           119.6705         estimate D2E/DX2                !
 ! A34   A(13,18,19)           120.2938         estimate D2E/DX2                !
 ! A35   A(13,18,24)           119.4663         estimate D2E/DX2                !
 ! A36   A(19,18,24)           120.2399         estimate D2E/DX2                !
 ! A37   A(5,20,21)            119.1523         estimate D2E/DX2                !
 ! A38   A(5,20,31)            121.6548         estimate D2E/DX2                !
 ! A39   A(21,20,31)           119.1929         estimate D2E/DX2                !
 ! A40   A(5,22,9)             126.514          estimate D2E/DX2                !
 ! A41   A(5,22,23)            116.7591         estimate D2E/DX2                !
 ! A42   A(9,22,23)            116.7269         estimate D2E/DX2                !
 ! A43   A(16,24,18)           120.4851         estimate D2E/DX2                !
 ! A44   A(16,24,25)           119.7228         estimate D2E/DX2                !
 ! A45   A(18,24,25)           119.7921         estimate D2E/DX2                !
 ! A46   A(5,26,27)            119.4759         estimate D2E/DX2                !
 ! A47   A(5,26,33)            121.0431         estimate D2E/DX2                !
 ! A48   A(27,26,33)           119.481          estimate D2E/DX2                !
 ! A49   A(8,28,29)            120.409          estimate D2E/DX2                !
 ! A50   A(8,28,35)            119.2188         estimate D2E/DX2                !
 ! A51   A(29,28,35)           120.3722         estimate D2E/DX2                !
 ! A52   A(2,30,31)            118.8497         estimate D2E/DX2                !
 ! A53   A(2,30,33)            119.9552         estimate D2E/DX2                !
 ! A54   A(31,30,33)           121.1938         estimate D2E/DX2                !
 ! A55   A(20,31,30)           119.058          estimate D2E/DX2                !
 ! A56   A(20,31,32)           120.4687         estimate D2E/DX2                !
 ! A57   A(30,31,32)           120.4733         estimate D2E/DX2                !
 ! A58   A(26,33,30)           119.4589         estimate D2E/DX2                !
 ! A59   A(26,33,34)           120.2644         estimate D2E/DX2                !
 ! A60   A(30,33,34)           120.2766         estimate D2E/DX2                !
 ! A61   A(28,35,36)           119.7089         estimate D2E/DX2                !
 ! A62   A(28,35,41)           120.6189         estimate D2E/DX2                !
 ! A63   A(36,35,41)           119.6722         estimate D2E/DX2                !
 ! A64   A(8,37,38)            120.2627         estimate D2E/DX2                !
 ! A65   A(8,37,39)            119.4846         estimate D2E/DX2                !
 ! A66   A(38,37,39)           120.2527         estimate D2E/DX2                !
 ! A67   A(37,39,40)           119.8434         estimate D2E/DX2                !
 ! A68   A(37,39,41)           120.2884         estimate D2E/DX2                !
 ! A69   A(40,39,41)           119.8681         estimate D2E/DX2                !
 ! A70   A(35,41,39)           120.6168         estimate D2E/DX2                !
 ! A71   A(35,41,42)           119.6937         estimate D2E/DX2                !
 ! A72   A(39,41,42)           119.6895         estimate D2E/DX2                !
 ! D1    D(6,1,8,28)             2.5297         estimate D2E/DX2                !
 ! D2    D(6,1,8,37)          -178.0856         estimate D2E/DX2                !
 ! D3    D(12,1,8,28)          120.0295         estimate D2E/DX2                !
 ! D4    D(12,1,8,37)          -60.5858         estimate D2E/DX2                !
 ! D5    D(15,1,8,28)         -128.843          estimate D2E/DX2                !
 ! D6    D(15,1,8,37)           50.5417         estimate D2E/DX2                !
 ! D7    D(6,1,12,3)            59.6282         estimate D2E/DX2                !
 ! D8    D(6,1,12,43)         -160.7873         estimate D2E/DX2                !
 ! D9    D(8,1,12,3)           -56.8565         estimate D2E/DX2                !
 ! D10   D(8,1,12,43)           82.7281         estimate D2E/DX2                !
 ! D11   D(15,1,12,3)         -170.9929         estimate D2E/DX2                !
 ! D12   D(15,1,12,43)         -31.4084         estimate D2E/DX2                !
 ! D13   D(12,3,7,11)           -3.2076         estimate D2E/DX2                !
 ! D14   D(12,3,7,13)          176.6408         estimate D2E/DX2                !
 ! D15   D(16,3,7,11)          178.3706         estimate D2E/DX2                !
 ! D16   D(16,3,7,13)           -1.781          estimate D2E/DX2                !
 ! D17   D(7,3,12,1)           139.1421         estimate D2E/DX2                !
 ! D18   D(7,3,12,43)            0.39           estimate D2E/DX2                !
 ! D19   D(16,3,12,1)          -42.4509         estimate D2E/DX2                !
 ! D20   D(16,3,12,43)         178.797          estimate D2E/DX2                !
 ! D21   D(7,3,16,17)         -179.3142         estimate D2E/DX2                !
 ! D22   D(7,3,16,24)            0.6999         estimate D2E/DX2                !
 ! D23   D(12,3,16,17)           2.2914         estimate D2E/DX2                !
 ! D24   D(12,3,16,24)        -177.6945         estimate D2E/DX2                !
 ! D25   D(22,5,20,21)           0.7329         estimate D2E/DX2                !
 ! D26   D(22,5,20,31)        -179.2816         estimate D2E/DX2                !
 ! D27   D(26,5,20,21)        -179.8893         estimate D2E/DX2                !
 ! D28   D(26,5,20,31)           0.0963         estimate D2E/DX2                !
 ! D29   D(20,5,22,9)           -7.2269         estimate D2E/DX2                !
 ! D30   D(20,5,22,23)         172.7427         estimate D2E/DX2                !
 ! D31   D(26,5,22,9)          173.4087         estimate D2E/DX2                !
 ! D32   D(26,5,22,23)          -6.6217         estimate D2E/DX2                !
 ! D33   D(20,5,26,27)        -179.7646         estimate D2E/DX2                !
 ! D34   D(20,5,26,33)           0.2124         estimate D2E/DX2                !
 ! D35   D(22,5,26,27)          -0.3689         estimate D2E/DX2                !
 ! D36   D(22,5,26,33)         179.6081         estimate D2E/DX2                !
 ! D37   D(3,7,11,4)             9.3735         estimate D2E/DX2                !
 ! D38   D(3,7,11,9)          -170.3242         estimate D2E/DX2                !
 ! D39   D(13,7,11,4)         -170.4696         estimate D2E/DX2                !
 ! D40   D(13,7,11,9)            9.8327         estimate D2E/DX2                !
 ! D41   D(3,7,13,14)         -178.3259         estimate D2E/DX2                !
 ! D42   D(3,7,13,18)            1.6793         estimate D2E/DX2                !
 ! D43   D(11,7,13,14)           1.5246         estimate D2E/DX2                !
 ! D44   D(11,7,13,18)        -178.4702         estimate D2E/DX2                !
 ! D45   D(1,8,28,29)           -2.0521         estimate D2E/DX2                !
 ! D46   D(1,8,28,35)          177.9117         estimate D2E/DX2                !
 ! D47   D(37,8,28,29)         178.5652         estimate D2E/DX2                !
 ! D48   D(37,8,28,35)          -1.471          estimate D2E/DX2                !
 ! D49   D(1,8,37,38)            1.102          estimate D2E/DX2                !
 ! D50   D(1,8,37,39)         -178.8669         estimate D2E/DX2                !
 ! D51   D(28,8,37,38)        -179.5065         estimate D2E/DX2                !
 ! D52   D(28,8,37,39)           0.5246         estimate D2E/DX2                !
 ! D53   D(10,9,11,4)         -179.7454         estimate D2E/DX2                !
 ! D54   D(10,9,11,7)           -0.0417         estimate D2E/DX2                !
 ! D55   D(22,9,11,4)            0.2652         estimate D2E/DX2                !
 ! D56   D(22,9,11,7)          179.9689         estimate D2E/DX2                !
 ! D57   D(10,9,22,5)           -2.171          estimate D2E/DX2                !
 ! D58   D(10,9,22,23)         177.8594         estimate D2E/DX2                !
 ! D59   D(11,9,22,5)          177.8184         estimate D2E/DX2                !
 ! D60   D(11,9,22,23)          -2.1512         estimate D2E/DX2                !
 ! D61   D(7,13,18,19)         179.5427         estimate D2E/DX2                !
 ! D62   D(7,13,18,24)          -0.4526         estimate D2E/DX2                !
 ! D63   D(14,13,18,19)         -0.4521         estimate D2E/DX2                !
 ! D64   D(14,13,18,24)        179.5526         estimate D2E/DX2                !
 ! D65   D(3,16,24,18)           0.5878         estimate D2E/DX2                !
 ! D66   D(3,16,24,25)        -179.3897         estimate D2E/DX2                !
 ! D67   D(17,16,24,18)       -179.3981         estimate D2E/DX2                !
 ! D68   D(17,16,24,25)          0.6244         estimate D2E/DX2                !
 ! D69   D(13,18,24,16)         -0.7216         estimate D2E/DX2                !
 ! D70   D(13,18,24,25)        179.2558         estimate D2E/DX2                !
 ! D71   D(19,18,24,16)        179.283          estimate D2E/DX2                !
 ! D72   D(19,18,24,25)         -0.7395         estimate D2E/DX2                !
 ! D73   D(5,20,31,30)          -0.4425         estimate D2E/DX2                !
 ! D74   D(5,20,31,32)         179.4949         estimate D2E/DX2                !
 ! D75   D(21,20,31,30)        179.5431         estimate D2E/DX2                !
 ! D76   D(21,20,31,32)         -0.5195         estimate D2E/DX2                !
 ! D77   D(5,26,33,30)          -0.1698         estimate D2E/DX2                !
 ! D78   D(5,26,33,34)         179.8093         estimate D2E/DX2                !
 ! D79   D(27,26,33,30)        179.8072         estimate D2E/DX2                !
 ! D80   D(27,26,33,34)         -0.2137         estimate D2E/DX2                !
 ! D81   D(8,28,35,36)        -178.2888         estimate D2E/DX2                !
 ! D82   D(8,28,35,41)           1.7429         estimate D2E/DX2                !
 ! D83   D(29,28,35,36)          1.675          estimate D2E/DX2                !
 ! D84   D(29,28,35,41)       -178.2933         estimate D2E/DX2                !
 ! D85   D(2,30,31,20)        -179.1036         estimate D2E/DX2                !
 ! D86   D(2,30,31,32)           0.959          estimate D2E/DX2                !
 ! D87   D(33,30,31,20)          0.4886         estimate D2E/DX2                !
 ! D88   D(33,30,31,32)       -179.4488         estimate D2E/DX2                !
 ! D89   D(2,30,33,26)         179.3995         estimate D2E/DX2                !
 ! D90   D(2,30,33,34)          -0.5796         estimate D2E/DX2                !
 ! D91   D(31,30,33,26)         -0.1883         estimate D2E/DX2                !
 ! D92   D(31,30,33,34)        179.8325         estimate D2E/DX2                !
 ! D93   D(28,35,41,39)         -1.036          estimate D2E/DX2                !
 ! D94   D(28,35,41,42)        178.972          estimate D2E/DX2                !
 ! D95   D(36,35,41,39)        178.9957         estimate D2E/DX2                !
 ! D96   D(36,35,41,42)         -0.9963         estimate D2E/DX2                !
 ! D97   D(8,37,39,40)        -179.7145         estimate D2E/DX2                !
 ! D98   D(8,37,39,41)           0.1981         estimate D2E/DX2                !
 ! D99   D(38,37,39,40)          0.3166         estimate D2E/DX2                !
 ! D100  D(38,37,39,41)       -179.7708         estimate D2E/DX2                !
 ! D101  D(37,39,41,35)          0.0594         estimate D2E/DX2                !
 ! D102  D(37,39,41,42)       -179.9486         estimate D2E/DX2                !
 ! D103  D(40,39,41,35)        179.972          estimate D2E/DX2                !
 ! D104  D(40,39,41,42)         -0.036          estimate D2E/DX2                !
 --------------------------------------------------------------------------------
 Trust Radius=3.00D-01 FncErr=1.00D-07 GrdErr=1.00D-06 EigMax=2.50D+02 EigMin=1.00D-04
 Number of steps in this run=    231 maximum allowed number of steps=    258.
 GradGradGradGradGradGradGradGradGradGradGradGradGradGradGradGradGradGrad

                          Input orientation:                          
 ---------------------------------------------------------------------
 Center     Atomic      Atomic             Coordinates (Angstroms)
 Number     Number       Type             X           Y           Z
 ---------------------------------------------------------------------
      1         16           0        6.155600    5.744100   10.295200
      2         17           0       16.102400    2.215000    3.768300
      3          6           0        8.556500    6.857500    9.734900
      4          8           0        8.705400    5.120600    7.431700
      5          6           0       12.356100    3.741800    5.755000
      6          8           0        5.702000    6.798000   11.143400
      7          6           0        9.742600    6.524900    9.040300
      8          6           0        6.910900    4.519100   11.301100
      9          6           0       11.039600    5.085100    7.375600
     10          1           0       11.824400    5.413500    7.751300
     11          6           0        9.752800    5.550000    7.915600
     12          7           0        7.330100    6.300200    9.309100
     13          6           0       10.921100    7.155100    9.450700
     14          1           0       11.711300    6.971900    8.995200
     15          8           0        5.236200    5.096000    9.409200
     16          6           0        8.602900    7.745400   10.797400
     17          1           0        7.821400    7.953600   11.257200
     18          6           0       10.950900    8.031700   10.499400
     19          1           0       11.750800    8.431200   10.754100
     20          6           0       13.603900    4.267300    6.057400
     21          1           0       13.668500    4.945800    6.690200
     22          6           0       11.128400    4.222200    6.380800
     23          1           0       10.328500    3.887300    6.045000
     24          6           0        9.784600    8.318800   11.176900
     25          1           0        9.801500    8.906300   11.897300
     26          6           0       12.297500    2.728700    4.807500
     27          1           0       11.474400    2.359900    4.582500
     28          6           0        6.939700    4.650000   12.664200
     29          1           0        6.583300    5.405600   13.072000
     30          6           0       14.649500    2.805800    4.522300
     31          6           0       14.746600    3.810200    5.445600
     32          1           0       15.573900    4.179200    5.655800
     33          6           0       13.441300    2.261100    4.194400
     34          1           0       13.389800    1.580300    3.563200
     35          6           0        7.505700    3.642500   13.428600
     36          1           0        7.507500    3.713200   14.355600
     37          6           0        7.469500    3.407400   10.709000
     38          1           0        7.460000    3.314600    9.784200
     39          6           0        8.042200    2.433200   11.499100
     40          1           0        8.424200    1.682700   11.104500
     41          6           0        8.052300    2.565100   12.843200
     42          1           0        8.441400    1.903400   13.368000
     43          1           0        7.417600    5.800100    8.662600
 ---------------------------------------------------------------------
                    Distance matrix (angstroms):
                    1          2          3          4          5
     1  S    0.000000
     2  Cl  12.409424   0.000000
     3  C    2.705165  10.681467   0.000000
     4  O    3.884567   8.750921   2.888550   0.000000
     5  C    7.941588   4.506979   6.323302   4.247355   0.000000
     6  O    1.426850  13.548591   3.183643   5.060711   9.091329
     7  C    3.879561   9.317525   1.414187   2.373907   5.036787
     8  C    1.755830  12.105190   3.260229   4.307469   7.811122
     9  C    5.728159   6.847045   3.856616   2.335144   2.482735
    10  H    6.222220   6.663030   4.086438   3.148983   2.657536
    11  C    4.317409   8.284911   2.539792   1.231093   3.836007
    12  N    1.631285  11.150900   1.412779   2.609126   6.666162
    13  C    5.041239   9.140029   2.400139   3.622827   5.231447
    14  H    5.836377   8.320477   3.242377   3.860995   4.620412
    15  O    1.431896  12.577528   3.772712   3.993302   8.116650
    16  C    3.201044  11.672021   1.385433   4.269428   7.452592
    17  H    2.929543  12.553490   2.014747   4.841673   8.281121
    18  C    5.316927  10.280061   2.774231   4.788273   6.548829
    19  H    6.223934  10.314018   3.703897   5.592216   6.880978
    20  C    8.695807   3.961618   6.760872   5.158694   1.387300
    21  H    8.371199   4.681734   6.249587   5.021229   2.011618
    22  C    6.509028   5.966128   4.980910   2.789703   1.459334
    23  H    6.238990   6.427898   5.057414   2.465445   2.053395
    24  C    4.536090  11.491663   2.392277   5.041793   7.547088
    25  H    5.085157  12.270105   3.228557   5.956051   8.421751
    26  C    8.770999   3.977573   7.437832   5.050821   1.388367
    27  H    8.507490   4.701309   7.435709   4.838054   2.015390
    28  C    2.724707  13.000820   4.008478   5.542402   8.826056
    29  H    2.829864  13.687660   4.139779   6.033036   9.467415
    30  C   10.682056   1.740253   8.983992   7.011079   2.766826
    31  C   10.053053   2.682572   8.124129   6.492907   2.411410
    32  H   10.614957   2.774896   8.547295   7.156560   3.248907
    33  C   10.120893   2.695392   8.699730   6.409805   2.409482
    34  H   10.723372   2.793405   9.449842   7.031545   3.247246
    35  C    4.007205  13.010089   5.008376   6.291810   9.078567
    36  H    4.736986  13.718886   5.686642   7.166319   9.873199
    37  C    2.712514  11.141010   3.746149   3.899128   6.966549
    38  H    2.804470  10.587316   3.709027   3.216662   6.355214
    39  C    3.996335  11.170484   4.790755   4.919928   7.301839
    40  H    4.721915  10.632870   5.354611   5.038620   6.951035
    41  C    4.493976  12.135917   5.323574   6.020087   8.375554
    42  H    5.423832  12.285856   6.144572   6.757198   8.755704
    43  H    2.064258  10.594001   1.888125   1.906637   6.089295
                    6          7          8          9         10
     6  O    0.000000
     7  C    4.563339   0.000000
     8  C    2.584510   4.141615   0.000000
     9  C    6.754281   2.554694   5.725039   0.000000
    10  H    7.134912   2.688982   6.127276   0.930004   0.000000
    11  C    5.327774   1.488450   4.538806   1.470913   2.082583
    12  N    2.502633   2.437806   2.704831   4.356063   4.838565
    13  C    5.498341   1.398014   5.143363   2.933425   2.595589
    14  H    6.384097   2.019312   5.863211   2.575713   1.997170
    15  O    2.474111   4.741886   2.591663   6.149398   6.801016
    16  C    3.071238   2.424033   3.677715   4.972265   5.009446
    17  H    2.416654   3.262949   3.553411   5.801028   5.896393
    18  C    5.430258   2.420621   5.413195   4.295165   3.894872
    19  H    6.277490   3.256372   6.247269   4.807957   4.257786
    20  C    9.732002   5.376252   8.506235   2.997012   2.711032
    21  H    9.312720   4.840374   8.191925   2.720348   2.178390
    22  C    7.665698   3.780980   6.487280   1.319890   1.944706
    23  H    7.474648   4.033861   6.301250   1.926366   2.734678
    24  C    4.356785   2.790144   4.765637   5.146039   4.933182
    25  H    4.671102   3.719810   5.287584   6.048159   5.786285
    26  C   10.010167   6.233397   8.624838   3.705411   4.012223
    27  H    9.801160   6.341793   8.404003   3.926471   4.414552
    28  C    2.908374   4.950167   1.369674   6.705802   6.969922
    29  H    2.536723   5.242959   2.007309   7.239496   7.468537
    30  C   11.825159   7.636864  10.429451   5.134969   5.020730
    31  C   11.099399   6.732866   9.807528   4.369453   4.052910
    32  H   11.594235   7.138712  10.345652   4.933381   4.469157
    33  C   11.347635   7.439296   9.912107   4.884995   5.020312
    34  H   11.991084   8.231024  10.511317   5.686955   5.889319
    35  C    4.293327   5.706937   2.376651   7.156001   7.349785
    36  H    4.805627   6.415118   3.214868   7.942181   8.071148
    37  C    3.848237   4.203611   1.377858   5.164479   5.633612
    38  H    4.131835   4.008700   2.013285   4.663642   5.252242
    39  C    4.965334   5.067452   2.381181   5.746323   6.101904
    40  H    5.794668   5.426417   3.220853   5.685186   6.060048
    41  C    5.131342   5.744491   2.738427   6.720789   6.947630
    42  H    6.034092   6.463774   3.668296   7.265171   7.437258
    43  H    3.177020   2.464471   2.976472   3.909793   4.516615
                   11         12         13         14         15
    11  C    0.000000
    12  N    2.893807   0.000000
    13  C    2.509542   3.694074   0.000000
    14  H    2.650105   4.443493   0.930300   0.000000
    15  O    4.778769   2.417547   6.046462   6.754059   0.000000
    16  C    3.800898   2.433857   2.745197   3.675374   4.503453
    17  H    4.546855   2.601961   3.675484   4.605616   4.273668
    18  C    3.777605   4.186299   1.367146   1.990980   6.516492
    19  H    4.511142   5.115836   2.003917   2.285792   7.441259
    20  C    4.464213   7.353013   5.201085   4.418989   9.052056
    21  H    4.147212   6.990590   4.477675   3.639882   8.861106
    22  C    2.451722   5.226864   4.250784   3.838712   6.682272
    23  H    2.568102   5.046468   4.756941   4.486711   6.221762
    24  C    4.278241   3.686190   2.371834   3.207199   5.848004
    25  H    5.207788   4.427003   3.210305   3.976358   6.446006
    26  C    4.908719   7.595728   6.561006   5.990426   8.754525
    27  H    4.924449   7.419025   6.855615   6.387377   8.348558
    28  C    5.592203   3.759291   5.696811   6.451430   3.700791
    29  H    6.054341   3.939218   5.915325   6.735724   3.914925
    30  C    6.559176   9.417956   7.556885   6.782053  10.850669
    31  C    5.836595   8.725320   6.470211   5.639952  10.383213
    32  H    6.393043   9.263125   6.701179   5.819832  11.036149
    33  C    6.186212   8.934274   7.611264   6.944942  10.126918
    34  H    6.923126   9.592330   8.475584   7.835390  10.630948
    35  C    6.251495   4.905557   6.310864   6.958952   4.839305
    36  H    7.063201   5.673729   6.896186   7.551486   5.615854
    37  C    4.196103   3.216744   5.248058   5.799624   3.086823
    38  H    3.707507   3.025955   5.180722   5.663207   2.873899
    39  C    5.047977   4.500764   5.897487   6.350717   4.396797
    40  H    5.185583   5.073640   6.238327   6.574938   4.968702
    41  C    6.006877   5.192534   6.388049   6.900382   5.111578
    42  H    6.689255   6.086173   7.005320   7.450055   6.011497
    43  H    2.464491   0.822021   3.838182   4.463138   2.410741
                   16         17         18         19         20
    16  C    0.000000
    17  H    0.930325   0.000000
    18  C    2.384088   3.220890   0.000000
    19  H    3.222029   3.990162   0.929684   0.000000
    20  C    7.718470   8.606046   6.398475   6.544542   0.000000
    21  H    7.096982   8.005806   5.605188   5.686903   0.930038
    22  C    6.188493   6.974157   5.613080   6.101542   2.496942
    23  H    6.359869   7.070175   6.115972   6.696685   3.297393
    24  C    1.367195   1.998493   1.379017   2.014283   7.563794
    25  H    1.998527   2.288703   2.010017   2.309198   8.371559
    26  C    8.642699   9.430466   7.895117   8.257084   2.374073
    27  H    8.710574   9.443808   8.212982   8.661739   3.216873
    28  C    3.979030   3.697407   5.675560   6.410354   9.391902
    29  H    3.837610   3.364327   5.708818   6.421057   9.989453
    30  C   10.016881  10.884929   8.758733   8.881606   2.363428
    31  C    9.048349   9.944891   7.600612   7.649093   1.374410
    32  H    9.367426  10.282171   7.724917   7.660826   2.012447
    33  C    9.853287  10.671034   8.902524   9.162837   2.742635
    34  H   10.642205  11.437817   9.781598  10.066290   3.672444
    35  C    4.996083   4.837378   6.301959   6.935811   9.587127
    36  H    5.488108   5.261141   6.736225   7.296295  10.311801
    37  C    4.484490   4.592634   5.792083   6.600767   7.746462
    38  H    4.686660   4.880641   5.911762   6.747686   7.248737
    39  C    5.387600   5.530107   6.387733   7.091174   7.994281
    40  H    6.073103   6.301656   6.860041   7.532018   7.680017
    41  C    5.596782   5.621801   6.616570   7.242539   8.931116
    42  H    6.384593   6.437763   7.216822   7.771536   9.256582
    43  H    3.121938   3.395963   4.564875   5.483948   6.885263
                   21         22         23         24         25
    21  H    0.000000
    22  C    2.659217   0.000000
    23  H    3.562626   0.929925   0.000000
    24  C    6.825854   6.449070   6.802236   0.000000
    25  H    7.599549   7.357529   7.727710   0.929741   0.000000
    26  C    3.215545   2.464267   2.598215   8.839295   9.729235
    27  H    3.992913   2.611850   2.405191   9.047100   9.957924
    28  C    9.002940   7.563685   7.475258   4.874999   5.185955
    29  H    9.546667   8.174994   8.106201   4.725088   4.898125
    30  C    3.200274   4.225915   4.707366   9.916860  10.728925
    31  C    2.000229   3.759749   4.459241   8.820245   9.594200
    32  H    2.299610   4.504436   5.267913   9.007487   9.727405
    33  C    3.672636   3.738417   3.969732   9.940950  10.804698
    34  H    4.602433   4.475761   4.566524  10.787645  11.662049
    35  C    9.224138   7.945533   7.908582   5.668450   5.943330
    36  H    9.911386   8.773109   8.778065   6.041595   6.186595
    37  C    7.546193   5.725798   5.491546   5.449814   6.090007
    38  H    7.125947   5.085669   4.747409   5.690817   6.419885
    39  C    7.816261   6.238762   6.090056   6.146548   6.719726
    40  H    7.591874   6.006255   5.838250   6.774493   7.396343
    41  C    8.664228   7.346495   7.290050   6.235582   6.645694
    42  H    9.009539   7.836949   7.818141   6.911039   7.283779
    43  H    6.610139   4.633186   4.357060   4.274137   5.078852
                   26         27         28         29         30
    26  C    0.000000
    27  H    0.929587   0.000000
    28  C    9.701812   9.545781   0.000000
    29  H   10.398069  10.260154   0.929652   0.000000
    30  C    2.370483   3.206823  11.363654  12.038269   0.000000
    31  C    2.752254   3.681794  10.665887  11.284802   1.367747
    32  H    3.682168   4.611694  11.130532  11.719000   2.006381
    33  C    1.379427   2.007257  10.941442  11.650400   1.365271
    34  H    2.015000   2.305538  11.569574  12.303603   2.002141
    35  C    9.905541   9.780037   1.385539   2.021511  11.447975
    36  H   10.727514  10.633964   2.015149   2.316461  12.187097
    37  C    7.654928   7.393949   2.376457   3.218994   9.496819
    38  H    6.965072   6.639619   3.216894   3.993809   8.923866
    39  C    7.935516   7.721705   2.736269   3.665728   9.616183
    40  H    7.466510   7.231791   3.666234   4.595645   9.129133
    41  C    9.089607   8.943827   2.369964   3.206049  10.621599
    42  H    9.425115   9.305509   3.208465   3.975620  10.844411
    43  H    6.936045   6.703717   4.190933   4.504941   8.854846
                   31         32         33         34         35
    31  C    0.000000
    32  H    0.929930   0.000000
    33  C    2.380970   3.219127   0.000000
    34  H    3.218197   3.987925   0.929814   0.000000
    35  C   10.779009  11.216074  11.063908  11.670536   0.000000
    36  H   11.480509  11.873099  11.856161  12.475040   0.929694
    37  C    8.990095   9.581848   8.911589   9.457838   2.729983
    38  H    8.494917   9.144758   8.254191   8.767620   3.659407
    39  C    9.137285   9.691191   9.085072   9.607433   2.339489
    40  H    8.747694   9.329472   8.558932   9.029888   3.175830
    41  C   10.054273  10.527987  10.194875  10.750681   1.342481
    42  H   10.303196  10.748481  10.453798  10.987500   1.975772
    43  H    8.247608   8.842703   8.293027   8.915030   5.232376
                   36         37         38         39         40
    36  H    0.000000
    37  C    3.659597   0.000000
    38  H    4.588991   0.929493   0.000000
    39  C    3.175515   1.378880   2.014126   0.000000
    40  H    3.941183   2.010588   2.309972   0.929991   0.000000
    41  C    1.975423   2.367263   3.204692   1.350594   1.984948
    42  H    2.263382   3.205758   3.974702   1.983138   2.274299
    43  H    6.064114   3.148882   2.727177   4.446557   4.891738
                   41         42         43
    41  C    0.000000
    42  H    0.929871   0.000000
    43  H    5.324048   6.194613   0.000000
 Stoichiometry    C21H16ClNO3S
 Framework group  C1[X(C21H16ClNO3S)]
 Deg. of freedom   123
 Full point group                 C1      NOp   1
 Largest Abelian subgroup         C1      NOp   1
 Largest concise Abelian subgroup C1      NOp   1
                         Standard orientation:                         
 ---------------------------------------------------------------------
 Center     Atomic      Atomic             Coordinates (Angstroms)
 Number     Number       Type             X           Y           Z
 ---------------------------------------------------------------------
      1         16           0       -4.025115   -0.213487   -1.244859
      2         17           0        8.249561   -0.507688    0.555022
      3          6           0       -2.198203    1.543502   -0.299715
      4          8           0       -0.179786    0.050482   -1.728214
      5          6           0        3.882203   -0.179621   -0.508659
      6          8           0       -5.158582    0.625332   -1.026832
      7          6           0       -0.810095    1.588263   -0.033110
      8          6           0       -3.826988   -1.242365    0.164075
      9          6           0        1.555030    0.656612   -0.287411
     10          1           0        1.800521    1.164221    0.452167
     11          6           0        0.161317    0.720430   -0.753325
     12          7           0       -2.675048    0.698502   -1.326623
     13          6           0       -0.375849    2.491094    0.941963
     14          1           0        0.534854    2.557351    1.119974
     15          8           0       -3.960687   -1.035081   -2.415824
     16          6           0       -3.067221    2.346861    0.420596
     17          1           0       -3.980520    2.306735    0.248030
     18          6           0       -1.245219    3.279876    1.642753
     19          1           0       -0.928176    3.866936    2.290177
     20          6           0        4.461907    0.647875    0.442022
     21          1           0        3.934448    1.280165    0.874418
     22          6           0        2.472152   -0.089793   -0.873820
     23          1           0        2.191589   -0.610091   -1.591688
     24          6           0       -2.596822    3.197823    1.381747
     25          1           0       -3.193024    3.724606    1.862853
     26          6           0        4.698886   -1.113240   -1.132315
     27          1           0        4.338376   -1.678881   -1.775910
     28          6           0       -4.717225   -1.188264    1.203574
     29          1           0       -5.423268   -0.583701    1.187473
     30          6           0        6.566758   -0.380770    0.130115
     31          6           0        5.795685    0.556410    0.760884
     32          1           0        6.168731    1.124252    1.395835
     33          6           0        6.036870   -1.214411   -0.812342
     34          1           0        6.573346   -1.845430   -1.234911
     35          6           0       -4.553673   -2.045858    2.279447
     36          1           0       -5.167484   -2.031513    2.977559
     37          6           0       -2.768500   -2.122965    0.215465
     38          1           0       -2.156271   -2.160762   -0.482892
     39          6           0       -2.624826   -2.948251    1.310713
     40          1           0       -1.910009   -3.541701    1.352410
     41          6           0       -3.516593   -2.897186    2.323752
     42          1           0       -3.411282   -3.457020    3.058705
     43          1           0       -2.072321    0.279829   -1.696962
 ---------------------------------------------------------------------
 Rotational constants (GHZ):           0.3253969           0.0637833           0.0607007
 Standard basis: 6-311++G(d,p) (5D, 7F)
 There are   749 symmetry adapted cartesian basis functions of A   symmetry.
 There are   722 symmetry adapted basis functions of A   symmetry.
   722 basis functions,  1147 primitive gaussians,   749 cartesian basis functions
   103 alpha electrons      103 beta electrons
       nuclear repulsion energy      2585.2356671922 Hartrees.
 NAtoms=   43 NActive=   43 NUniq=   43 SFac= 1.00D+00 NAtFMM=   60 NAOKFM=F Big=F
 Integral buffers will be    131072 words long.
 Raffenetti 2 integral format.
 Two-electron integral symmetry is turned on.
 R6APFD:  NTU= -4 IXU= 1 FactS= 1.050
 Nuclear repulsion after empirical dispersion term =     2585.1961570420 Hartrees.
 One-electron integrals computed using PRISM.
 NBasis=   722 RedAO= T EigKep=  1.11D-06  NBF=   722
 NBsUse=   715 1.00D-06 EigRej=  6.99D-07 NBFU=   715
 ExpMin= 3.60D-02 ExpMax= 1.06D+05 ExpMxC= 3.62D+03 IAcc=3 IRadAn=         5 AccDes= 0.00D+00
 Harris functional with IExCor= 1009 and IRadAn=       5 diagonalized for initial guess.
 HarFok:  IExCor= 1009 AccDes= 0.00D+00 IRadAn=         5 IDoV= 1 UseB2=F ITyADJ=14
 ICtDFT=  3500011 ScaDFX=  1.000000  1.000000  1.000000  1.000000
 FoFCou: FMM=F IPFlag=           0 FMFlag=      100000 FMFlg1=           0
         NFxFlg=           0 DoJE=T BraDBF=F KetDBF=T FulRan=T
         wScrn=  0.000000 ICntrl=       500 IOpCl=  0 I1Cent=   200000004 NGrid=           0
         NMat0=    1 NMatS0=      1 NMatT0=    0 NMatD0=    1 NMtDS0=    0 NMtDT0=    0
 Petite list used in FoFCou.
 Requested convergence on RMS density matrix=1.00D-08 within  32 cycles.
 Requested convergence on MAX density matrix=1.00D-06.
 Requested convergence on             energy=1.00D-06.
 No special actions if energy rises.
 SCF Done:  E(RM08HX) =  -1948.19192962     A.U. after   17 cycles
            NFock= 17  Conv=0.55D-08     -V/T= 2.0001
 QCSCF skips out because SCF is already converged.

 **********************************************************************

            Population analysis using the SCF Density.

 **********************************************************************

 Orbital symmetries:
       Occupied  (A) (A) (A) (A) (A) (A) (A) (A) (A) (A) (A) (A)
                 (A) (A) (A) (A) (A) (A) (A) (A) (A) (A) (A) (A)
                 (A) (A) (A) (A) (A) (A) (A) (A) (A) (A) (A) (A)
                 (A) (A) (A) (A) (A) (A) (A) (A) (A) (A) (A) (A)
                 (A) (A) (A) (A) (A) (A) (A) (A) (A) (A) (A) (A)
                 (A) (A) (A) (A) (A) (A) (A) (A) (A) (A) (A) (A)
                 (A) (A) (A) (A) (A) (A) (A) (A) (A) (A) (A) (A)
                 (A) (A) (A) (A) (A) (A) (A) (A) (A) (A) (A) (A)
                 (A) (A) (A) (A) (A) (A) (A)
       Virtual   (A) (A) (A) (A) (A) (A) (A) (A) (A) (A) (A) (A)
                 (A) (A) (A) (A) (A) (A) (A) (A) (A) (A) (A) (A)
                 (A) (A) (A) (A) (A) (A) (A) (A) (A) (A) (A) (A)
                 (A) (A) (A) (A) (A) (A) (A) (A) (A) (A) (A) (A)
                 (A) (A) (A) (A) (A) (A) (A) (A) (A) (A) (A) (A)
                 (A) (A) (A) (A) (A) (A) (A) (A) (A) (A) (A) (A)
                 (A) (A) (A) (A) (A) (A) (A) (A) (A) (A) (A) (A)
                 (A) (A) (A) (A) (A) (A) (A) (A) (A) (A) (A) (A)
                 (A) (A) (A) (A) (A) (A) (A) (A) (A) (A) (A) (A)
                 (A) (A) (A) (A) (A) (A) (A) (A) (A) (A) (A) (A)
                 (A) (A) (A) (A) (A) (A) (A) (A) (A) (A) (A) (A)
                 (A) (A) (A) (A) (A) (A) (A) (A) (A) (A) (A) (A)
                 (A) (A) (A) (A) (A) (A) (A) (A) (A) (A) (A) (A)
                 (A) (A) (A) (A) (A) (A) (A) (A) (A) (A) (A) (A)
                 (A) (A) (A) (A) (A) (A) (A) (A) (A) (A) (A) (A)
                 (A) (A) (A) (A) (A) (A) (A) (A) (A) (A) (A) (A)
                 (A) (A) (A) (A) (A) (A) (A) (A) (A) (A) (A) (A)
                 (A) (A) (A) (A) (A) (A) (A) (A) (A) (A) (A) (A)
                 (A) (A) (A) (A) (A) (A) (A) (A) (A) (A) (A) (A)
                 (A) (A) (A) (A) (A) (A) (A) (A) (A) (A) (A) (A)
                 (A) (A) (A) (A) (A) (A) (A) (A) (A) (A) (A) (A)
                 (A) (A) (A) (A) (A) (A) (A) (A) (A) (A) (A) (A)
                 (A) (A) (A) (A) (A) (A) (A) (A) (A) (A) (A) (A)
                 (A) (A) (A) (A) (A) (A) (A) (A) (A) (A) (A) (A)
                 (A) (A) (A) (A) (A) (A) (A) (A) (A) (A) (A) (A)
                 (A) (A) (A) (A) (A) (A) (A) (A) (A) (A) (A) (A)
                 (A) (A) (A) (A) (A) (A) (A) (A) (A) (A) (A) (A)
                 (A) (A) (A) (A) (A) (A) (A) (A) (A) (A) (A) (A)
                 (A) (A) (A) (A) (A) (A) (A) (A) (A) (A) (A) (A)
                 (A) (A) (A) (A) (A) (A) (A) (A) (A) (A) (A) (A)
                 (A) (A) (A) (A) (A) (A) (A) (A) (A) (A) (A) (A)
                 (A) (A) (A) (A) (A) (A) (A) (A) (A) (A) (A) (A)
                 (A) (A) (A) (A) (A) (A) (A) (A) (A) (A) (A) (A)
                 (A) (A) (A) (A) (A) (A) (A) (A) (A) (A) (A) (A)
                 (A) (A) (A) (A) (A) (A) (A) (A) (A) (A) (A) (A)
                 (A) (A) (A) (A) (A) (A) (A) (A) (A) (A) (A) (A)
                 (A) (A) (A) (A) (A) (A) (A) (A) (A) (A) (A) (A)
                 (A) (A) (A) (A) (A) (A) (A) (A) (A) (A) (A) (A)
                 (A) (A) (A) (A) (A) (A) (A) (A) (A) (A) (A) (A)
                 (A) (A) (A) (A) (A) (A) (A) (A) (A) (A) (A) (A)
                 (A) (A) (A) (A) (A) (A) (A) (A) (A) (A) (A) (A)
                 (A) (A) (A) (A) (A) (A) (A) (A) (A) (A) (A) (A)
                 (A) (A) (A) (A) (A) (A) (A) (A) (A) (A) (A) (A)
                 (A) (A) (A) (A) (A) (A) (A) (A) (A) (A) (A) (A)
                 (A) (A) (A) (A) (A) (A) (A) (A) (A) (A) (A) (A)
                 (A) (A) (A) (A) (A) (A) (A) (A) (A) (A) (A) (A)
                 (A) (A) (A) (A) (A) (A) (A) (A) (A) (A) (A) (A)
                 (A) (A) (A) (A) (A) (A) (A) (A) (A) (A) (A) (A)
                 (A) (A) (A) (A) (A) (A) (A) (A) (A) (A) (A) (A)
                 (A) (A) (A) (A) (A) (A) (A) (A) (A) (A) (A) (A)
                 (A) (A) (A) (A) (A) (A) (A) (A) (A) (A) (A) (A)
 The electronic state is 1-A.
 Alpha  occ. eigenvalues -- -102.66887 -90.08769 -19.61485 -19.60627 -19.60094
 Alpha  occ. eigenvalues --  -14.76707 -10.64618 -10.61423 -10.61302 -10.57504
 Alpha  occ. eigenvalues --  -10.57113 -10.56846 -10.55555 -10.54795 -10.54789
 Alpha  occ. eigenvalues --  -10.54755 -10.54623 -10.54539 -10.54326 -10.54243
 Alpha  occ. eigenvalues --  -10.54087 -10.53906 -10.53403 -10.53301 -10.53229
 Alpha  occ. eigenvalues --  -10.53192 -10.52901  -9.79656  -8.42491  -7.54963
 Alpha  occ. eigenvalues --   -7.54296  -7.54276  -6.37400  -6.37377  -6.37238
 Alpha  occ. eigenvalues --   -1.26946  -1.18439  -1.14023  -1.09842  -1.03634
 Alpha  occ. eigenvalues --   -1.01567  -1.00266  -0.98201  -0.93827  -0.91388
 Alpha  occ. eigenvalues --   -0.90754  -0.90676  -0.89612  -0.88939  -0.86238
 Alpha  occ. eigenvalues --   -0.79976  -0.78931  -0.76917  -0.75851  -0.75463
 Alpha  occ. eigenvalues --   -0.74445  -0.72010  -0.71749  -0.68563  -0.68119
 Alpha  occ. eigenvalues --   -0.65846  -0.64519  -0.63294  -0.61510  -0.60094
 Alpha  occ. eigenvalues --   -0.59173  -0.58425  -0.57353  -0.57166  -0.56737
 Alpha  occ. eigenvalues --   -0.56037  -0.55348  -0.54959  -0.53962  -0.53635
 Alpha  occ. eigenvalues --   -0.52771  -0.51971  -0.51781  -0.50169  -0.49671
 Alpha  occ. eigenvalues --   -0.48425  -0.47816  -0.47542  -0.46829  -0.46394
 Alpha  occ. eigenvalues --   -0.45712  -0.45342  -0.45150  -0.43587  -0.43186
 Alpha  occ. eigenvalues --   -0.41586  -0.41046  -0.39637  -0.39234  -0.38836
 Alpha  occ. eigenvalues --   -0.37816  -0.35492  -0.34757  -0.34491  -0.34233
 Alpha  occ. eigenvalues --   -0.33639  -0.30993  -0.30451
 Alpha virt. eigenvalues --   -0.08260  -0.04000  -0.03438  -0.02791  -0.02585
 Alpha virt. eigenvalues --   -0.02424  -0.01949  -0.01662  -0.01416  -0.01175
 Alpha virt. eigenvalues --   -0.00578  -0.00348  -0.00267   0.00419   0.00493
 Alpha virt. eigenvalues --    0.00979   0.01108   0.01526   0.01852   0.02477
 Alpha virt. eigenvalues --    0.02706   0.02922   0.03203   0.03575   0.03780
 Alpha virt. eigenvalues --    0.04321   0.04600   0.04808   0.05366   0.05678
 Alpha virt. eigenvalues --    0.05875   0.06257   0.06794   0.07005   0.07300
 Alpha virt. eigenvalues --    0.07861   0.07999   0.08336   0.08654   0.08937
 Alpha virt. eigenvalues --    0.09120   0.09371   0.09538   0.09877   0.10119
 Alpha virt. eigenvalues --    0.10425   0.10634   0.10732   0.10918   0.10997
 Alpha virt. eigenvalues --    0.11142   0.11379   0.11517   0.11749   0.12006
 Alpha virt. eigenvalues --    0.12147   0.12223   0.12541   0.12739   0.13143
 Alpha virt. eigenvalues --    0.13345   0.13379   0.13598   0.13734   0.14202
 Alpha virt. eigenvalues --    0.14268   0.14772   0.14952   0.14990   0.15218
 Alpha virt. eigenvalues --    0.15410   0.15528   0.15844   0.16000   0.16427
 Alpha virt. eigenvalues --    0.16760   0.16769   0.16904   0.17385   0.17528
 Alpha virt. eigenvalues --    0.17644   0.18143   0.18395   0.18463   0.18765
 Alpha virt. eigenvalues --    0.18981   0.19264   0.19442   0.19740   0.20155
 Alpha virt. eigenvalues --    0.20436   0.20603   0.21358   0.21446   0.21941
 Alpha virt. eigenvalues --    0.22073   0.22381   0.22555   0.22923   0.23173
 Alpha virt. eigenvalues --    0.23504   0.23635   0.23884   0.24045   0.24448
 Alpha virt. eigenvalues --    0.24730   0.24825   0.25121   0.25628   0.26022
 Alpha virt. eigenvalues --    0.26446   0.26673   0.27126   0.27402   0.27630
 Alpha virt. eigenvalues --    0.27809   0.28823   0.29043   0.29087   0.29565
 Alpha virt. eigenvalues --    0.30064   0.30159   0.30652   0.30732   0.31689
 Alpha virt. eigenvalues --    0.32002   0.32212   0.32431   0.32536   0.32766
 Alpha virt. eigenvalues --    0.33351   0.33482   0.33949   0.34254   0.34639
 Alpha virt. eigenvalues --    0.34970   0.35314   0.35828   0.36124   0.36297
 Alpha virt. eigenvalues --    0.36701   0.36898   0.37285   0.37526   0.37874
 Alpha virt. eigenvalues --    0.38081   0.38425   0.39050   0.39268   0.39502
 Alpha virt. eigenvalues --    0.40051   0.40863   0.40947   0.41306   0.41874
 Alpha virt. eigenvalues --    0.42031   0.42566   0.43262   0.43535   0.44475
 Alpha virt. eigenvalues --    0.45753   0.46248   0.47114   0.47504   0.48165
 Alpha virt. eigenvalues --    0.48332   0.48800   0.49230   0.50236   0.50991
 Alpha virt. eigenvalues --    0.51610   0.52443   0.54186   0.54323   0.55044
 Alpha virt. eigenvalues --    0.55724   0.56186   0.56543   0.56936   0.57651
 Alpha virt. eigenvalues --    0.57709   0.57959   0.58460   0.58663   0.59225
 Alpha virt. eigenvalues --    0.59234   0.59641   0.59829   0.60345   0.60799
 Alpha virt. eigenvalues --    0.60925   0.61498   0.61594   0.61831   0.63075
 Alpha virt. eigenvalues --    0.63302   0.63667   0.64282   0.64498   0.64929
 Alpha virt. eigenvalues --    0.65535   0.66202   0.66691   0.67360   0.67539
 Alpha virt. eigenvalues --    0.67883   0.69166   0.69503   0.69709   0.70031
 Alpha virt. eigenvalues --    0.70661   0.71272   0.72009   0.72449   0.73052
 Alpha virt. eigenvalues --    0.73225   0.73775   0.73985   0.74686   0.75186
 Alpha virt. eigenvalues --    0.76295   0.77303   0.77733   0.77921   0.78419
 Alpha virt. eigenvalues --    0.78732   0.79116   0.79849   0.80222   0.80873
 Alpha virt. eigenvalues --    0.80985   0.81343   0.82482   0.83554   0.84002
 Alpha virt. eigenvalues --    0.84347   0.85181   0.86252   0.86361   0.87103
 Alpha virt. eigenvalues --    0.87399   0.87738   0.87773   0.88040   0.88131
 Alpha virt. eigenvalues --    0.88889   0.89211   0.89974   0.90121   0.90614
 Alpha virt. eigenvalues --    0.91408   0.91877   0.92310   0.92514   0.93132
 Alpha virt. eigenvalues --    0.93297   0.94025   0.94621   0.94775   0.95111
 Alpha virt. eigenvalues --    0.95576   0.96160   0.97429   0.98320   0.99183
 Alpha virt. eigenvalues --    0.99997   1.00141   1.00488   1.01110   1.01407
 Alpha virt. eigenvalues --    1.01914   1.02612   1.03239   1.03661   1.03886
 Alpha virt. eigenvalues --    1.04922   1.05520   1.05728   1.06555   1.07838
 Alpha virt. eigenvalues --    1.08304   1.08704   1.09464   1.10013   1.10462
 Alpha virt. eigenvalues --    1.10780   1.11730   1.11855   1.11924   1.12516
 Alpha virt. eigenvalues --    1.13830   1.13906   1.14890   1.15264   1.15984
 Alpha virt. eigenvalues --    1.16743   1.18073   1.18981   1.19260   1.20032
 Alpha virt. eigenvalues --    1.20666   1.22208   1.23093   1.23489   1.25081
 Alpha virt. eigenvalues --    1.26144   1.26821   1.27391   1.27876   1.28674
 Alpha virt. eigenvalues --    1.29276   1.29759   1.30879   1.31907   1.32237
 Alpha virt. eigenvalues --    1.33749   1.34329   1.34767   1.35419   1.36141
 Alpha virt. eigenvalues --    1.36880   1.38299   1.41235   1.43257   1.44868
 Alpha virt. eigenvalues --    1.49315   1.50049   1.51170   1.51981   1.52991
 Alpha virt. eigenvalues --    1.54357   1.54689   1.55662   1.56481   1.56734
 Alpha virt. eigenvalues --    1.57305   1.58408   1.59857   1.60325   1.61451
 Alpha virt. eigenvalues --    1.61862   1.62300   1.62830   1.63959   1.64317
 Alpha virt. eigenvalues --    1.65469   1.65569   1.66216   1.67122   1.69014
 Alpha virt. eigenvalues --    1.69220   1.69939   1.70481   1.71933   1.72889
 Alpha virt. eigenvalues --    1.73167   1.73380   1.74096   1.75701   1.76175
 Alpha virt. eigenvalues --    1.76579   1.77280   1.77906   1.79548   1.80329
 Alpha virt. eigenvalues --    1.80505   1.81756   1.82660   1.84185   1.85966
 Alpha virt. eigenvalues --    1.86390   1.86796   1.87476   1.88022   1.88340
 Alpha virt. eigenvalues --    1.89606   1.90151   1.90621   1.91765   1.92170
 Alpha virt. eigenvalues --    1.93609   1.94554   1.95458   1.96048   1.96934
 Alpha virt. eigenvalues --    1.97451   1.99327   1.99735   2.00287   2.00364
 Alpha virt. eigenvalues --    2.00744   2.01357   2.01508   2.02199   2.03303
 Alpha virt. eigenvalues --    2.03969   2.04505   2.05171   2.05711   2.06141
 Alpha virt. eigenvalues --    2.07763   2.08567   2.09030   2.10407   2.10752
 Alpha virt. eigenvalues --    2.12575   2.13406   2.14757   2.15296   2.16921
 Alpha virt. eigenvalues --    2.17355   2.18088   2.18748   2.21550   2.22904
 Alpha virt. eigenvalues --    2.23279   2.24071   2.24529   2.25145   2.26551
 Alpha virt. eigenvalues --    2.28340   2.30032   2.31341   2.32383   2.34738
 Alpha virt. eigenvalues --    2.35290   2.36953   2.37423   2.38195   2.39124
 Alpha virt. eigenvalues --    2.41082   2.41448   2.42010   2.42922   2.43595
 Alpha virt. eigenvalues --    2.44893   2.46394   2.46804   2.47903   2.48749
 Alpha virt. eigenvalues --    2.49043   2.50262   2.50928   2.53270   2.57547
 Alpha virt. eigenvalues --    2.57989   2.58787   2.59698   2.61758   2.65303
 Alpha virt. eigenvalues --    2.66017   2.67674   2.68742   2.71688   2.72703
 Alpha virt. eigenvalues --    2.73564   2.77700   2.78548   2.78847   2.79809
 Alpha virt. eigenvalues --    2.80484   2.81129   2.81823   2.82843   2.84494
 Alpha virt. eigenvalues --    2.86056   2.86852   2.88061   2.89542   2.89985
 Alpha virt. eigenvalues --    2.90984   2.92207   2.92661   2.93175   2.93569
 Alpha virt. eigenvalues --    2.94217   2.94413   2.95228   2.95542   2.96367
 Alpha virt. eigenvalues --    2.97051   2.97920   2.98183   2.98410   2.99595
 Alpha virt. eigenvalues --    3.00463   3.00670   3.01093   3.01913   3.02018
 Alpha virt. eigenvalues --    3.02137   3.03002   3.03321   3.04799   3.05307
 Alpha virt. eigenvalues --    3.06248   3.06630   3.08305   3.09645   3.10276
 Alpha virt. eigenvalues --    3.11743   3.12142   3.14113   3.16236   3.16951
 Alpha virt. eigenvalues --    3.17735   3.19532   3.20867   3.21502   3.22011
 Alpha virt. eigenvalues --    3.25147   3.25673   3.26846   3.27912   3.28805
 Alpha virt. eigenvalues --    3.31065   3.32703   3.33349   3.36148   3.38999
 Alpha virt. eigenvalues --    3.42098   3.42231   3.42883   3.47188   3.48438
 Alpha virt. eigenvalues --    3.49615   3.53975   3.54825   3.55837   3.61360
 Alpha virt. eigenvalues --    3.62435   3.65228   3.67010   3.69456   3.70861
 Alpha virt. eigenvalues --    3.71997   3.72451   3.75082   3.75439   3.79494
 Alpha virt. eigenvalues --    3.81446   3.83235   3.87042   3.89941   3.91854
 Alpha virt. eigenvalues --    3.92489   3.97516   4.05483   4.11136   4.18463
 Alpha virt. eigenvalues --    4.27429   4.27626   4.31743   4.32863   4.33592
 Alpha virt. eigenvalues --    4.34893   4.35017   4.40232   4.41934   4.43660
 Alpha virt. eigenvalues --    4.44584   4.59196   4.63581   4.72860   4.92750
 Alpha virt. eigenvalues --    4.93560   4.95250   5.19528   5.22112   5.23482
 Alpha virt. eigenvalues --    5.24494   5.26050   5.33979   5.35252   5.50271
 Alpha virt. eigenvalues --    5.51331   5.93319   8.42755   9.97820  17.57954
 Alpha virt. eigenvalues --   17.65446  17.81269  23.74883  23.80396  23.83794
 Alpha virt. eigenvalues --   23.92803  24.02749  24.04649  24.06374  24.12180
 Alpha virt. eigenvalues --   24.12430  24.19696  24.20881  24.23112  24.24371
 Alpha virt. eigenvalues --   24.30764  24.30914  24.31880  24.32723  24.38789
 Alpha virt. eigenvalues --   24.42362  24.44523  24.48446  26.02915  26.34582
 Alpha virt. eigenvalues --   26.85012  35.86441  49.93958  49.97237  50.05673
 Alpha virt. eigenvalues --  189.23815 215.57148
          Condensed to atoms (all electrons):
               1          2          3          4          5          6
     1  S   27.431998  -0.000002   2.560699   0.028796  -0.043898   1.811074
     2  Cl  -0.000002  17.631139   0.000392   0.000018  -0.488511  -0.000000
     3  C    2.560699   0.000392  44.792662   0.237101   2.068599   0.482213
     4  O    0.028796   0.000018   0.237101   7.771404   0.141989   0.004063
     5  C   -0.043898  -0.488511   2.068599   0.141989  26.420070  -0.000106
     6  O    1.811074  -0.000000   0.482213   0.004063  -0.000106   9.378163
     7  C   -0.246511   0.001279   5.910686   0.261309   4.495758   0.000182
     8  C   -9.815190   0.000010  -5.101516  -0.003782  -0.084787  -1.024540
     9  C   -0.433382  -0.140501  -6.895877  -0.648866 -15.187434  -0.023005
    10  H    0.028038  -0.001523   0.003383   0.030543  -0.288703   0.001783
    11  C   -0.175955  -0.003195  -8.289618   0.551058  -5.804769  -0.059364
    12  N   -2.806294  -0.000000  -3.837380  -0.174591  -0.177110  -0.567782
    13  C    0.649138  -0.001945  -7.564107  -0.258255  -2.424260   0.039092
    14  H   -0.038756   0.000289  -0.376577  -0.018019  -0.016761  -0.002255
    15  O   -1.575947   0.000000  -0.508288   0.017046   0.001596  -0.739222
    16  C   -1.956097   0.000023 -10.290394  -0.065581   0.412464  -0.444973
    17  H    0.099969  -0.000000   0.398854   0.001168   0.003155   0.056350
    18  C    0.956267  -0.000473  10.255128   0.007264  -0.992733   0.103670
    19  H    0.020033  -0.000004   0.356673   0.001072   0.001005   0.002204
    20  C   -0.009818   0.047712  -0.520027  -0.059589  -2.490916   0.000025
    21  H    0.001174  -0.018949   0.020960  -0.000198   0.025759   0.000008
    22  C    0.095878  -0.123644   0.931502   0.245303   0.665306   0.007339
    23  H   -0.022771   0.007481  -0.083823  -0.023881  -0.377157  -0.001497
    24  C   -2.577763   0.000000 -20.420777   0.011126   0.089120  -0.478074
    25  H   -0.058283   0.000001  -0.523034   0.000577   0.002765  -0.013904
    26  C    0.013666   0.494169   0.437051   0.047019   5.846396   0.000106
    27  H    0.001150  -0.021553   0.012921   0.001163   0.113701   0.000026
    28  C   -3.105214   0.000001  -1.748544  -0.002718  -0.040085  -2.459211
    29  H   -0.273551  -0.000000  -0.338669  -0.001175  -0.000467  -0.094207
    30  C   -0.000004  -1.334942   0.016333  -0.001842  -1.108040   0.000001
    31  C   -0.002999   0.138925  -0.105597  -0.005678  -4.537560  -0.000003
    32  H   -0.000057   0.054527   0.001503   0.000053   0.052075  -0.000000
    33  C    0.001987   0.098877   0.012382   0.001991  -1.218079   0.000001
    34  H   -0.000047   0.070820   0.000074   0.000155  -0.063421  -0.000000
    35  C   -0.125002   0.000000   2.325313   0.012781   0.023301  -0.177047
    36  H    0.058607   0.000000   0.083005   0.000192   0.000376   0.008241
    37  C    3.239253   0.000014   0.365099  -0.005320   0.096433   1.812218
    38  H   -0.520258  -0.000001  -0.044925   0.010242  -0.010501  -0.056401
    39  C    2.507081  -0.000018   1.408320  -0.009192   0.031834   0.369750
    40  H    0.038412  -0.000001   0.023982  -0.000249   0.004584   0.003394
    41  C   -0.123057  -0.000006  -0.831318  -0.010215  -0.023519  -0.086042
    42  H   -0.043363   0.000000  -0.036102  -0.000115  -0.000791  -0.003641
    43  H    0.702369  -0.000033   0.204346   0.053056  -0.102216   0.183005
               7          8          9         10         11         12
     1  S   -0.246511  -9.815190  -0.433382   0.028038  -0.175955  -2.806294
     2  Cl   0.001279   0.000010  -0.140501  -0.001523  -0.003195  -0.000000
     3  C    5.910686  -5.101516  -6.895877   0.003383  -8.289618  -3.837380
     4  O    0.261309  -0.003782  -0.648866   0.030543   0.551058  -0.174591
     5  C    4.495758  -0.084787 -15.187434  -0.288703  -5.804769  -0.177110
     6  O    0.000182  -1.024540  -0.023005   0.001783  -0.059364  -0.567782
     7  C   34.938038  -2.109328 -12.704803   0.420216  -4.764788  -0.795377
     8  C   -2.109328  55.743113   1.176830   0.015248   3.104832   1.434727
     9  C  -12.704803   1.176830  39.091945   0.753561   7.114775   0.681473
    10  H    0.420216   0.015248   0.753561   1.034051   0.302198  -0.021908
    11  C   -4.764788   3.104832   7.114775   0.302198  37.085717   2.501854
    12  N   -0.795377   1.434727   0.681473  -0.021908   2.501854  11.479066
    13  C   -9.634424  -1.617909  -0.507238  -0.462808  -1.877727  -0.093327
    14  H   -0.240879   0.039149   0.027468  -0.134653   0.054163   0.043130
    15  O    0.197737   0.594024  -0.044848  -0.002024  -0.309719   0.225211
    16  C   -5.985199   1.177077  -0.597982  -0.220468  -7.657959  -0.020582
    17  H   -0.231911  -0.128101  -0.033927  -0.002472  -0.106541  -0.054814
    18  C   -7.147715  -0.642556  -2.678292   0.215468   0.606889  -0.764168
    19  H   -0.057513  -0.010421  -0.071675   0.015684  -0.016322  -0.018629
    20  C   -2.263028   0.002105   1.738211  -0.221262  -0.959579   0.061647
    21  H   -0.050376  -0.008226  -0.226727  -0.097668  -0.129207  -0.002617
    22  C   -1.076148  -0.257650   6.447897  -0.000586 -10.329850  -0.438631
    23  H   -0.383894   0.047414   0.428984  -0.024850   0.282446   0.026235
    24  C    2.670904   2.747029   1.064190  -0.074475  -0.866562   1.111649
    25  H    0.216868  -0.009059   0.016227  -0.002180  -0.032521   0.021032
    26  C    1.781016  -0.043242 -10.235402  -0.053112  -2.430345  -0.053653
    27  H    0.070095  -0.004744  -0.248378   0.001816  -0.038767  -0.001927
    28  C   -0.220834  -8.435156   0.105284  -0.000821   0.769401   1.888265
    29  H    0.000362   0.158100   0.004400  -0.000458   0.005372   0.051879
    30  C   -0.022373  -0.001515  -2.612300   0.009381  -0.453138  -0.000621
    31  C   -0.776159   0.010255   1.481156  -0.103387   0.548956   0.009051
    32  H    0.016079   0.000275  -0.025249   0.005962   0.007595   0.000016
    33  C    0.063791  -0.003668   0.537852  -0.007524   0.190894  -0.002226
    34  H   -0.006547   0.000125  -0.012841  -0.001762   0.007195   0.000043
    35  C    0.338088  -7.808131  -0.081793   0.001720  -0.432069  -0.168836
    36  H   -0.000160  -0.105740  -0.000833   0.000230  -0.003289  -0.014004
    37  C    1.387796 -14.533016  -0.571339  -0.046041  -2.219554  -1.453848
    38  H   -0.016135   0.325049   0.030583  -0.005691   0.094045   0.120275
    39  C    0.213907  -7.672344  -0.181659   0.027402  -0.244318  -0.913778
    40  H   -0.018670  -0.077923   0.010835  -0.000805  -0.010837  -0.013154
    41  C    0.068741  -1.139476  -0.063138   0.003231  -0.027571   0.202027
    42  H    0.001242   0.116049   0.000042  -0.000361   0.003048   0.008109
    43  H   -0.125811   0.042686  -0.015389   0.028979   0.352975  -0.330068
              13         14         15         16         17         18
     1  S    0.649138  -0.038756  -1.575947  -1.956097   0.099969   0.956267
     2  Cl  -0.001945   0.000289   0.000000   0.000023  -0.000000  -0.000473
     3  C   -7.564107  -0.376577  -0.508288 -10.290394   0.398854  10.255128
     4  O   -0.258255  -0.018019   0.017046  -0.065581   0.001168   0.007264
     5  C   -2.424260  -0.016761   0.001596   0.412464   0.003155  -0.992733
     6  O    0.039092  -0.002255  -0.739222  -0.444973   0.056350   0.103670
     7  C   -9.634424  -0.240879   0.197737  -5.985199  -0.231911  -7.147715
     8  C   -1.617909   0.039149   0.594024   1.177077  -0.128101  -0.642556
     9  C   -0.507238   0.027468  -0.044848  -0.597982  -0.033927  -2.678292
    10  H   -0.462808  -0.134653  -0.002024  -0.220468  -0.002472   0.215468
    11  C   -1.877727   0.054163  -0.309719  -7.657959  -0.106541   0.606889
    12  N   -0.093327   0.043130   0.225211  -0.020582  -0.054814  -0.764168
    13  C   28.824836   1.357504   0.015622   7.021587   0.169122  -6.680426
    14  H    1.357504   0.733019  -0.001012   0.425503   0.002990  -0.927764
    15  O    0.015622  -0.001012   9.388664   0.669674  -0.015972  -0.028410
    16  C    7.021587   0.425503   0.669674  27.722369   0.677225  -3.433569
    17  H    0.169122   0.002990  -0.015972   0.677225   0.480127   0.116329
    18  C   -6.680426  -0.927764  -0.028410  -3.433569   0.116329  26.210554
    19  H   -0.340177  -0.063837  -0.000292  -0.058410   0.006993   0.962171
    20  C    0.438697   0.028522  -0.000865  -0.037310  -0.000857   0.077197
    21  H    0.042102  -0.009871   0.000024   0.007007   0.000231   0.029337
    22  C   -3.341184  -0.191530  -0.025547   0.286146   0.016644  -0.647545
    23  H    0.116646   0.012146   0.003254  -0.012951  -0.000513   0.022401
    24  C    2.687762   0.176246   0.179808  -0.819230  -0.717808  -8.793760
    25  H    0.115568   0.016659   0.004052  -0.136145  -0.034216  -0.539387
    26  C   -0.702777  -0.036864  -0.000008   0.035496   0.001121  -0.071792
    27  H   -0.023561  -0.000498  -0.000153   0.001836   0.000057  -0.004042
    28  C   -0.277233   0.062596   1.423030   2.163748  -0.263623  -1.248972
    29  H    0.016596   0.000468   0.025849   0.111300  -0.012874  -0.012100
    30  C   -0.043510  -0.005036  -0.000003   0.001332   0.000008  -0.002566
    31  C    0.204786   0.050776  -0.000016  -0.009005  -0.000511  -0.000923
    32  H   -0.007758   0.002120   0.000001   0.000247  -0.000000  -0.005851
    33  C    0.074219  -0.001906   0.000018  -0.000328   0.000022   0.016366
    34  H    0.001998   0.000105   0.000002  -0.000009  -0.000003   0.000146
    35  C   -0.219704  -0.015068   0.310171  -0.508724   0.060569   0.110659
    36  H   -0.007068  -0.000572  -0.002326  -0.025450   0.002316   0.007878
    37  C    1.285872  -0.066495  -1.180225  -0.820737   0.186050   1.021547
    38  H    0.013616   0.001725   0.093192   0.064695  -0.004706  -0.041073
    39  C   -0.095298  -0.024562  -0.558901  -1.021535   0.024282   0.391937
    40  H   -0.011565  -0.000671  -0.010873  -0.014972   0.000401   0.006411
    41  C    0.198894   0.009878   0.032277   0.390460  -0.009247  -0.110829
    42  H    0.005129   0.000725   0.002950   0.018789  -0.000769  -0.009076
    43  H   -0.038634  -0.013467  -0.224098  -0.505561   0.005222   0.238617
              19         20         21         22         23         24
     1  S    0.020033  -0.009818   0.001174   0.095878  -0.022771  -2.577763
     2  Cl  -0.000004   0.047712  -0.018949  -0.123644   0.007481   0.000000
     3  C    0.356673  -0.520027   0.020960   0.931502  -0.083823 -20.420777
     4  O    0.001072  -0.059589  -0.000198   0.245303  -0.023881   0.011126
     5  C    0.001005  -2.490916   0.025759   0.665306  -0.377157   0.089120
     6  O    0.002204   0.000025   0.000008   0.007339  -0.001497  -0.478074
     7  C   -0.057513  -2.263028  -0.050376  -1.076148  -0.383894   2.670904
     8  C   -0.010421   0.002105  -0.008226  -0.257650   0.047414   2.747029
     9  C   -0.071675   1.738211  -0.226727   6.447897   0.428984   1.064190
    10  H    0.015684  -0.221262  -0.097668  -0.000586  -0.024850  -0.074475
    11  C   -0.016322  -0.959579  -0.129207 -10.329850   0.282446  -0.866562
    12  N   -0.018629   0.061647  -0.002617  -0.438631   0.026235   1.111649
    13  C   -0.340177   0.438697   0.042102  -3.341184   0.116646   2.687762
    14  H   -0.063837   0.028522  -0.009871  -0.191530   0.012146   0.176246
    15  O   -0.000292  -0.000865   0.000024  -0.025547   0.003254   0.179808
    16  C   -0.058410  -0.037310   0.007007   0.286146  -0.012951  -0.819230
    17  H    0.006993  -0.000857   0.000231   0.016644  -0.000513  -0.717808
    18  C    0.962171   0.077197   0.029337  -0.647545   0.022401  -8.793760
    19  H    0.486789  -0.003883   0.001634   0.010410  -0.000841  -0.440925
    20  C   -0.003883  17.619084   0.722648   0.058388   0.192386  -0.012750
    21  H    0.001634   0.722648   0.613391  -0.066519  -0.003003  -0.004128
    22  C    0.010410   0.058388  -0.066519  20.238695   0.338223  -0.097674
    23  H   -0.000841   0.192386  -0.003003   0.338223   0.573493   0.011617
    24  C   -0.440925  -0.012750  -0.004128  -0.097674   0.011617  30.714152
    25  H   -0.041369  -0.000444  -0.000338  -0.004174   0.000299   1.211853
    26  C    0.003107  -2.470060   0.182862  -5.231659  -0.393495  -0.014861
    27  H    0.000040  -0.009923   0.002753  -0.184684  -0.055153  -0.000802
    28  C   -0.044261   0.000873  -0.002874  -0.311238   0.015505   1.144401
    29  H   -0.000444   0.000143  -0.000016  -0.003203   0.000214   0.209953
    30  C    0.000183  -2.067284  -0.044522  -2.672503  -0.010858  -0.001114
    31  C   -0.005561   2.084716  -0.101455   0.609622   0.111162   0.010344
    32  H   -0.000186   0.068599  -0.045994  -0.020137   0.002863   0.000226
    33  C    0.000201  -4.759359   0.016839   0.550412   0.008219   0.000026
    34  H   -0.000005  -0.114532   0.002683   0.056414   0.009719   0.000076
    35  C    0.007797  -0.007081   0.000563   0.055703  -0.001453  -0.682285
    36  H    0.000455  -0.000145   0.000009   0.001406  -0.000130  -0.044938
    37  C    0.031854  -0.003593   0.007914   0.337748  -0.007572  -0.662661
    38  H   -0.001223  -0.002924   0.000025  -0.066988   0.005880   0.073597
    39  C    0.011004   0.009033   0.002015   0.296994  -0.054400  -0.761562
    40  H    0.000327   0.000947   0.000257   0.022820  -0.002312  -0.014279
    41  C   -0.005195   0.008135  -0.000263  -0.057253  -0.004191   0.277494
    42  H   -0.000431   0.000272  -0.000044  -0.004638   0.000439   0.018331
    43  H    0.005310   0.022195  -0.000882  -0.009605  -0.026185  -0.407115
              25         26         27         28         29         30
     1  S   -0.058283   0.013666   0.001150  -3.105214  -0.273551  -0.000004
     2  Cl   0.000001   0.494169  -0.021553   0.000001  -0.000000  -1.334942
     3  C   -0.523034   0.437051   0.012921  -1.748544  -0.338669   0.016333
     4  O    0.000577   0.047019   0.001163  -0.002718  -0.001175  -0.001842
     5  C    0.002765   5.846396   0.113701  -0.040085  -0.000467  -1.108040
     6  O   -0.013904   0.000106   0.000026  -2.459211  -0.094207   0.000001
     7  C    0.216868   1.781016   0.070095  -0.220834   0.000362  -0.022373
     8  C   -0.009059  -0.043242  -0.004744  -8.435156   0.158100  -0.001515
     9  C    0.016227 -10.235402  -0.248378   0.105284   0.004400  -2.612300
    10  H   -0.002180  -0.053112   0.001816  -0.000821  -0.000458   0.009381
    11  C   -0.032521  -2.430345  -0.038767   0.769401   0.005372  -0.453138
    12  N    0.021032  -0.053653  -0.001927   1.888265   0.051879  -0.000621
    13  C    0.115568  -0.702777  -0.023561  -0.277233   0.016596  -0.043510
    14  H    0.016659  -0.036864  -0.000498   0.062596   0.000468  -0.005036
    15  O    0.004052  -0.000008  -0.000153   1.423030   0.025849  -0.000003
    16  C   -0.136145   0.035496   0.001836   2.163748   0.111300   0.001332
    17  H   -0.034216   0.001121   0.000057  -0.263623  -0.012874   0.000008
    18  C   -0.539387  -0.071792  -0.004042  -1.248972  -0.012100  -0.002566
    19  H   -0.041369   0.003107   0.000040  -0.044261  -0.000444   0.000183
    20  C   -0.000444  -2.470060  -0.009923   0.000873   0.000143  -2.067284
    21  H   -0.000338   0.182862   0.002753  -0.002874  -0.000016  -0.044522
    22  C   -0.004174  -5.231659  -0.184684  -0.311238  -0.003203  -2.672503
    23  H    0.000299  -0.393495  -0.055153   0.015505   0.000214  -0.010858
    24  C    1.211853  -0.014861  -0.000802   1.144401   0.209953  -0.001114
    25  H    0.509558  -0.000145  -0.000012   0.113795   0.002550  -0.000022
    26  C   -0.000145  21.498022   0.695592  -0.013440  -0.000216  -0.709236
    27  H   -0.000012   0.695592   0.501237  -0.001055  -0.000011   0.100909
    28  C    0.113795  -0.013440  -0.001055  69.892213   0.858078  -0.000427
    29  H    0.002550  -0.000216  -0.000011   0.858078   0.469999  -0.000006
    30  C   -0.000022  -0.709236   0.100909  -0.000427  -0.000006  18.228887
    31  C    0.000282  -4.633619  -0.025335   0.002468   0.000042   1.150973
    32  H    0.000021  -0.022373   0.001457   0.000060   0.000000  -0.172332
    33  C   -0.000008   2.162900  -0.090471  -0.000529  -0.000002  -2.507850
[...]
 5439,0.00008660,-0.00004223,-0.00009343,-0.01313027,-0.02563017,-0.028
 96133,-0.00083506,-0.00621544,0.00008177,0.04472343,-0.06357896,-0.110
 62597,-0.01375249,0.00985118,0.00794668,0.10371027,0.27195000,0.503422
 90,0.00108761,0.00029020,0.00081381,0.00008627,-0.00008256,0.00001797,
 -0.00017038,-0.00012743,-0.00009822,-0.00015783,-0.00000873,-0.0000646
 4,0.00007183,-0.00017324,-0.00026211,-0.00044118,0.00019307,0.00053452
 ,-0.00001060,-0.00001762,-0.00000058,-0.00287929,0.00459695,-0.0003329
 4,-0.00019910,0.00020778,0.00009430,0.00001539,0.00000772,-0.00001144,
 0.00027180,-0.00009654,-0.00000121,-0.00007873,0.00036292,-0.00017365,
 0.00003134,0.00001946,0.00002077,-0.00000376,0.00000035,-0.00000855,-0
 .00026446,-0.00014658,-0.00025786,0.00002142,0.00002601,0.00006704,-0.
 00000011,-0.00000782,-0.00000405,0.00002486,0.00000013,-0.00001688,0.0
 0000303,0.00000462,-0.00000036,-0.00011221,0.00004293,0.00003515,0.000
 03076,0.00002444,0.00000663,0.00017537,-0.00012714,-0.00000678,0.00002
 629,0.00000573,0.00000143,-0.00003641,-0.00001554,0.00000851,-0.000001
 38,0.00000505,0.00000209,-0.00028228,-0.00016075,0.00023145,-0.0000243
 6,-0.00010689,0.00032246,-0.00153974,0.00009925,-0.00008473,-0.0000332
 1,-0.00027042,0.00024775,-0.00023953,0.00012702,-0.00016376,0.00006119
 ,-0.00004758,0.00007627,0.00001406,0.00000927,-0.00000457,0.00008333,0
 .00026608,-0.00006531,-0.00003203,0.00002214,0.00008339,-0.00316623,0.
 00112616,-0.00437539,0.00006680,-0.00087443,-0.00099609,0.00394279,0.0
 1729392,0.01966336,0.00017912,-0.00139983,0.00068726,-0.05484040,0.005
 67021,-0.00370456,0.05356747,-0.00091573,0.00061483,-0.00059257,0.0000
 8328,-0.00009252,0.00001706,0.00015206,0.00013478,0.00005207,-0.000211
 13,0.00011427,0.00008224,0.00025955,-0.00004247,-0.00014929,0.00043122
 ,-0.00042401,-0.00044140,-0.00007134,-0.00001785,0.00008010,0.00467909
 ,0.00274727,-0.00277457,-0.00010200,0.00025526,0.00021440,-0.00000209,
 0.00000661,0.00003081,0.00038179,-0.00023244,-0.00022385,0.00005239,-0
 .00030559,0.00015725,-0.00000063,0.00003011,0.00000646,-0.00002008,-0.
 00001473,-0.00000830,0.00022930,0.00000002,0.00017523,-0.00001555,-0.0
 0001611,0.00000181,0.00000038,0.00002088,0.00001247,-0.00003424,-0.000
 00593,-0.00001224,-0.00000005,-0.00000103,0.00000363,-0.00032675,0.000
 03882,-0.00005091,0.00003373,0.00002512,0.00001630,-0.00005235,-0.0002
 0773,-0.00027627,0.00007823,-0.00015214,0.00008338,-0.00000534,0.00001
 116,0.00002701,-0.00000402,0.00000038,-0.00000194,-0.00004026,0.000087
 04,-0.00042691,-0.00004347,0.00002193,0.00046635,0.00001772,-0.0002700
 8,0.00104576,-0.00026301,-0.00055839,0.00038602,-0.00000007,0.00016803
 ,0.00017824,0.00020015,-0.00021923,0.00006469,0.00001459,-0.00000246,-
 0.00001527,-0.00015602,0.00019969,0.00001539,0.00002414,-0.00000986,-0
 .00005197,0.00097369,0.00451816,-0.00274766,0.00012906,-0.00006503,-0.
 00003560,-0.00209384,-0.00696291,-0.01272966,-0.00092957,-0.00182794,0
 .00222275,0.00553820,-0.17031341,-0.14797798,-0.00837873,0.17287979,-0
 .00064779,0.00021172,0.00013202,-0.00005125,0.00006411,-0.00001591,0.0
 0013492,0.00007782,0.00008535,-0.00000355,-0.00001982,0.00000099,-0.00
 030727,-0.00006030,0.00006073,0.00002691,0.00003996,-0.00007754,-0.000
 00396,0.00006528,0.00001452,-0.00024262,-0.00302293,0.00386312,-0.0000
 7242,0.00005527,0.00003721,0.00001676,0.00002233,-0.00002025,0.0000148
 2,-0.00000953,0.00001309,0.00000980,-0.00025642,0.00003541,-0.00002918
 ,-0.00003306,-0.00004124,0.00000192,0.00000500,-0.00000206,0.00020351,
 -0.00003858,0.00003658,-0.00003197,-0.00001565,-0.00005864,-0.00000267
 ,0.00000356,0.00000381,-0.00001616,0.00000158,0.00004487,-0.00000238,0
 .00000291,-0.00000072,0.00020906,-0.00014074,-0.00000953,0.00000357,0.
 00001406,-0.00001746,0.00002617,-0.00026256,0.00003383,-0.00006386,-0.
 00000885,-0.00002668,0.00004441,0.00001059,0.00000507,-0.00000026,-0.0
 0000055,-0.00000222,0.00077332,0.00008386,-0.00023236,0.00025829,0.000
 19950,-0.00037707,-0.00014580,0.00095000,-0.00019403,0.00024521,0.0004
 0822,-0.00041059,-0.00001188,-0.00002304,0.00005656,0.00004608,0.00013
 520,-0.00000839,-0.00000287,0.00000213,-0.00001103,-0.00010734,0.00003
 412,-0.00009488,0.00000801,-0.00001537,0.00001994,-0.00469006,-0.00244
 220,0.00201955,0.00012878,-0.00059019,-0.00051972,-0.00148517,-0.00254
 273,-0.00004612,0.00108347,0.00191965,-0.00132866,-0.00403134,-0.14747
 892,-0.20706979,0.00546650,0.16265755,0.21439474,0.00003808,-0.0016953
 4,-0.00185209,-0.00006622,0.00008841,-0.00000282,0.00010241,-0.0005619
 9,-0.00004443,0.00040167,0.00028075,-0.00005550,-0.00113630,-0.0008272
 3,0.00164599,0.00008031,-0.00022163,0.00022231,-0.00001710,-0.00028727
 ,-0.00022096,-0.02403259,-0.01475549,-0.02682113,-0.00007288,-0.000425
 34,0.00019114,0.00005696,0.00022732,-0.00025314,-0.00071709,0.00049609
 ,-0.00011301,-0.00056767,0.00050589,0.00013342,0.00013477,-0.00010676,
 0.00018210,0.00002257,0.00003349,-0.00001386,-0.00037487,0.00051014,0.
 00029042,0.00008440,0.00019200,0.00009829,0.00000881,-0.00001756,-0.00
 001621,0.00015524,-0.00004903,-0.00005131,0.00000071,0.00002836,-0.000
 01133,-0.00074367,-0.00048782,0.00105202,0.00015813,0.00008259,-0.0001
 4742,0.00063168,-0.00079743,0.00035843,-0.00014099,0.00012283,-0.00015
 137,-0.00019632,-0.00006938,-0.00008383,0.00000716,-0.00000184,0.00001
 186,-0.00000377,-0.00031068,0.00050491,0.00002285,0.00002248,-0.000271
 48,0.03795704,0.01036935,0.02918815,-0.00318438,0.00455072,-0.00077738
 ,-0.00019370,0.00011279,-0.00023379,-0.00008286,-0.00005428,0.00000846
 ,-0.00000534,-0.00002212,-0.00001435,0.00010117,0.00012179,-0.00012224
 ,0.00000757,0.00000537,0.00004387,-0.12513078,0.03920268,0.01099537,0.
 00377644,-0.01803930,-0.01963365,-0.05168008,0.03379463,0.00726190,-0.
 00174937,0.00465895,0.00033203,-0.25657767,-0.02629460,-0.13613826,0.0
 0464758,0.00146975,0.00262620,0.65865139,-0.00182453,-0.00026161,-0.00
 121547,0.00000374,-0.00001743,0.00004520,0.00084822,0.00019922,0.00034
 100,0.00050696,0.00016704,0.00020984,-0.00082471,-0.00037704,0.0012988
 0,0.00046051,-0.00041479,0.00012473,-0.00013391,0.00001101,-0.00005333
 ,-0.01435886,-0.02252097,-0.02499921,0.00067456,-0.00191886,0.00050003
 ,0.00007937,0.00012351,-0.00011953,-0.00070090,0.00036578,-0.00011776,
 -0.00051044,-0.00073432,0.00011739,-0.00009908,-0.00014078,-0.00005900
 ,0.00000534,-0.00003818,0.00002840,-0.00011614,0.00011503,-0.00001195,
 -0.00013270,-0.00000585,-0.00021904,-0.00000176,0.00001636,0.00001166,
 -0.00004776,0.00004672,0.00003682,-0.00000969,-0.00001359,0.00000143,-
 0.00114499,0.00011966,0.00101837,0.00002048,-0.00001585,-0.00008438,-0
 .00063408,-0.00112736,0.00105462,0.00001620,0.00002532,-0.00014986,0.0
 0013897,0.00001251,-0.00004244,0.00000786,-0.00002194,0.00000758,0.000
 01536,-0.00019069,-0.00027822,0.00003055,-0.00007787,0.00013042,0.0446
 7072,-0.02412606,-0.00984608,0.00429859,0.00311711,-0.00278172,0.00006
 472,-0.00030577,-0.00022935,0.00015387,-0.00074333,0.00030828,0.000066
 47,0.00001177,-0.00002254,0.00019973,0.00009803,-0.00026349,-0.0000342
 2,0.00000949,0.00003331,-0.00898611,-0.19209514,-0.14925134,0.00144114
 ,0.00205928,-0.00065650,-0.00241496,0.03261031,0.02937518,0.00427928,0
 .00197049,-0.00381860,0.02221103,-0.09956432,-0.03103965,-0.01756165,0
 .00160649,-0.01205453,-0.15805408,0.43185223,-0.00147231,-0.00019595,-
 0.00319680,0.00008637,-0.00005333,-0.00001996,0.00076406,-0.00021284,0
 .00016973,0.00015065,0.00056846,-0.00004538,0.00174677,0.00163990,-0.0
 0313783,0.00060895,-0.00085204,0.00000801,0.00001190,-0.00011917,-0.00
 016731,-0.02546418,-0.02343414,-0.04924993,0.00063449,-0.00004733,-0.0
 0148108,-0.00027969,-0.00023658,-0.00005066,-0.00045877,0.00021313,-0.
 00038428,-0.00083063,-0.00019417,0.00028778,-0.00000148,-0.00014971,0.
 00013201,-0.00000368,-0.00006025,0.00003415,-0.00015944,0.00041312,0.0
 0011349,-0.00000841,0.00014524,0.00006449,0.00001199,0.00000863,0.0000
 0143,0.00003891,0.00003659,-0.00007859,-0.00000544,-0.00000881,-0.0000
 0038,0.00022399,0.00049442,-0.00056212,-0.00003977,0.00003944,0.000026
 49,0.00101183,0.00263691,-0.00149020,-0.00017835,-0.00023496,0.0000696
 0,-0.00005879,-0.00001632,-0.00007246,0.00000167,-0.00002308,0.0000140
 7,0.00071179,0.00040777,-0.00106963,-0.00002662,-0.00006484,0.00008602
 ,0.06851358,-0.03011293,0.00974042,-0.00044326,-0.00263315,0.00340788,
 -0.00033641,-0.00013923,0.00017330,-0.00027977,0.00004105,0.00026295,0
 .00006698,0.00003516,-0.00003092,-0.00031767,0.00032137,-0.00002647,-0
 .00001368,-0.00000810,0.00001074,-0.04343082,-0.12350356,-0.22104676,0
 .00170718,-0.01124216,-0.00778736,-0.03215425,0.04572453,0.04256081,0.
 00015017,-0.00404094,0.00355406,-0.08249490,-0.05721357,-0.17013441,-0
 .01902945,-0.00116409,-0.00893625,0.09143727,0.24092143,0.46926880,-0.
 00020312,-0.00041455,-0.00003505,0.00002542,-0.00005849,-0.00002963,0.
 00000535,0.00001504,0.00000011,0.00009466,0.00002891,0.00004405,-0.000
 15707,-0.00017561,0.00027174,-0.00000966,0.00008616,0.00018163,-0.0000
 0206,0.00002814,0.00002767,0.00019591,-0.00095067,-0.00059428,0.000039
 94,-0.00004255,-0.00005889,0.00000331,0.00000979,0.,-0.00008752,0.0000
 0152,-0.00004213,0.00006668,-0.00003704,-0.00001159,-0.00001963,-0.000
 00510,-0.00001795,0.00000358,-0.00000471,0.00000233,-0.00005663,0.0001
 5568,0.00013264,-0.00000726,-0.00001117,-0.00001659,-0.00000035,-0.000
 00436,-0.00000260,-0.00000570,0.00000931,0.00000879,0.00000148,-0.0000
 0073,0.00000118,-0.00037684,-0.00063779,0.00069985,-0.00000912,-0.0000
 0241,-0.00003698,-0.00008326,0.00013112,-0.00006085,-0.00000746,-0.000
 00159,0.00001468,0.00002119,0.00000055,-0.00000276,0.00000102,0.000000
 18,0.00000182,-0.00010712,-0.00015213,-0.00010833,-0.00000929,0.000027
 44,-0.00001842,0.00211590,0.00078084,-0.00165685,0.00012068,-0.0001932
 8,-0.00011444,0.00001412,0.00029764,-0.00004965,-0.00044559,-0.0004085
 6,0.00004124,-0.00004178,-0.00000876,0.00001503,0.00018763,-0.00002964
 ,-0.00005185,0.00001418,0.00000247,-0.00007262,0.00449309,-0.00183924,
 -0.00187093,-0.00000255,-0.00076766,0.00116718,-0.00223289,0.00021262,
 -0.00464013,-0.00065728,0.00064756,0.00042509,-0.01480906,0.01467977,0
 .00705441,0.00008151,-0.00110683,0.00063979,-0.24042459,0.12747266,0.0
 3950036,0.25227872,-0.00008935,-0.00054464,0.00012393,0.00014198,-0.00
 024277,-0.00000493,0.00006027,0.00005300,0.00003987,-0.00013041,0.0000
 7273,0.00002837,0.00014074,-0.00025724,0.00038399,0.00007609,0.0001074
 3,0.00020946,-0.00003393,0.00003716,0.00007028,-0.00126473,-0.00030432
 ,0.00000670,-0.00013129,0.00013674,0.00014493,0.00004250,-0.00002713,-
 0.00004792,0.00024587,-0.00017409,-0.00016713,0.00001137,-0.00023352,0
 .00004864,-0.00000853,0.00000525,-0.00003720,-0.00000890,-0.00001600,-
 0.00000076,-0.00000693,0.00004505,0.00000721,-0.00004347,-0.00004739,-
 0.00002354,-0.00000464,0.00000604,0.00000113,-0.00002512,0.00001237,0.
 00003113,0.00000020,-0.00000131,0.00000075,-0.00027188,-0.00051146,0.0
 0007494,-0.00002197,-0.00008923,0.00004274,0.00022977,-0.00018682,-0.0
 0013633,-0.00002507,0.00001746,-0.00001837,0.00005436,0.00001884,0.000
 01990,-0.00000129,0.00000209,0.00000006,0.00008006,0.00008112,-0.00003
 898,-0.00002875,-0.00002514,-0.00005186,0.00072570,0.00140387,-0.00632
 227,0.00081463,-0.00042849,0.00006225,-0.00004630,0.00045291,0.0002796
 9,-0.00013291,0.00012170,-0.00013411,-0.00002856,-0.00001236,0.0000180
 5,-0.00034591,-0.00014239,-0.00002971,0.00002178,-0.00000892,-0.000071
 14,0.01753300,-0.00588994,-0.00202159,-0.00135778,-0.00176591,0.001985
 71,0.00045134,0.00430538,-0.00317766,-0.00026517,0.00003692,0.00005317
 ,-0.00418422,0.00581219,-0.00007746,-0.00083365,-0.00173508,0.00204170
 ,0.12636512,-0.12978488,-0.03759647,-0.13772308,0.12969648,-0.00012728
 ,0.00030770,-0.00053298,-0.00020044,0.00019919,-0.00001959,-0.00010135
 ,-0.00009772,-0.00006506,0.00014885,-0.00002316,0.00001044,0.00013816,
 0.00048589,-0.00052521,0.00011647,-0.00006641,0.00001866,0.00004131,-0
 .00004299,-0.00006018,-0.00034418,-0.00011504,-0.00129367,0.00018508,-
 0.00015078,-0.00009244,-0.00000150,-0.00000033,0.00001882,-0.00027449,
 0.00014330,0.00002603,-0.00003164,0.00025328,-0.00001843,0.00002943,-0
 .00000207,0.00002803,0.00000701,0.00000984,0.00000786,0.00014431,0.000
 10649,0.00020115,0.00003116,0.00001733,0.00004846,-0.00000114,0.000001
 79,-0.00000294,0.00003136,-0.00000201,-0.00002064,-0.00000283,-0.00000
 183,-0.00000268,0.00030462,0.00036782,-0.00030466,-0.00003720,-0.00007
 632,0.00000317,-0.00022454,0.00009259,0.00015893,0.00001339,-0.0000222
 5,0.00001757,-0.00002579,-0.00000130,0.00000067,0.00000169,-0.00000067
 ,-0.00000134,-0.00041036,0.00025279,-0.00033484,0.00003942,0.00000657,
 0.00002059,-0.00152341,-0.00616679,-0.00033242,0.00092939,-0.00039831,
 -0.00014951,0.00061085,-0.00033843,0.00025000,0.00022012,0.00018303,-0
 .00014595,-0.00011109,-0.00005176,0.00005208,-0.00025981,-0.00027109,-
 0.00008272,0.00000121,-0.00000116,-0.00000382,0.01937665,-0.01206160,0
 .00060323,0.00068640,0.00214059,-0.00124667,-0.00478669,-0.00326243,0.
 00085498,-0.00065451,0.00055418,0.00019475,-0.01469467,0.01021720,0.00
 766547,0.00124580,0.00178523,-0.00133226,0.04027267,-0.03826711,-0.061
 06989,-0.04074290,0.04431163,0.05743214,0.00378575,0.00915835,0.004440
 96,0.00016763,-0.00019848,0.00000194,0.00151493,0.00042499,-0.03107988
 ,0.00461575,0.00156921,0.00379391,0.00004235,-0.00003894,0.00007204,0.
 00121055,-0.00329390,0.00112636,0.00083795,0.00169937,0.00157191,-0.00
 018911,0.00016748,0.00036634,0.00081487,-0.00184207,0.00013421,0.00035
 311,-0.00022161,0.00002780,-0.01146568,-0.00063336,-0.00567333,-0.0341
 3727,-0.02481904,0.01685792,-0.00029025,-0.00082908,-0.00091371,0.0000
 8414,-0.00003627,0.00003671,-0.00340936,-0.00022279,-0.00249429,-0.004
 17463,-0.00228462,-0.00133104,-0.00013075,0.00015864,-0.00006959,-0.00
 117287,0.00013576,0.00081381,-0.00000528,0.00011101,0.00011814,-0.0000
 0096,-0.00009590,-0.00010306,-0.00004217,0.00000101,-0.00001456,0.0001
 7432,0.00064191,0.00040202,-0.00002575,0.00011123,0.00012417,0.0019133
 8,-0.00044902,-0.00000846,-0.00022748,-0.00011620,-0.00011979,0.000108
 05,0.00004531,0.00008668,-0.00000421,0.00002374,0.00001909,-0.00020096
 ,-0.00024621,-0.00006551,0.00002439,-0.00009140,0.00002214,-0.00015242
 ,0.00016031,0.00000675,-0.00000497,-0.00012723,-0.00006382,0.00001584,
 -0.00001546,0.00000856,0.00013411,-0.00002555,0.00005354,0.00001134,-0
 .00002323,-0.00000092,0.00003907,-0.00004333,-0.00015514,0.00001756,0.
 00000903,-0.00002236,-0.00000136,0.00011145,0.00023047,0.00012656,-0.0
 0006439,-0.00001440,-0.00006358,0.00011281,0.00006922,0.00002340,0.000
 02480,-0.00001768,0.00005130,-0.00007578,0.00010887,-0.00000852,0.0000
 1907,-0.00001956,0.03964123,0.00013897,-0.00151920,0.03740029,-0.00004
 203,0.00004955,-0.00000182,0.00203891,-0.00179920,-0.02118367,0.001286
 75,-0.00290625,-0.00077926,-0.00005423,0.00000925,0.00002636,-0.002028
 69,-0.00538272,0.00659845,0.00033583,0.00000606,0.00039142,-0.00031463
 ,-0.00076718,-0.00175915,0.00021344,0.00046984,0.00006679,0.00005151,0
 .00000507,-0.00000986,-0.00017295,0.00089112,-0.00033442,-0.01866990,-
 0.04526848,-0.03474753,-0.00038761,-0.00040650,0.00014853,-0.00007860,
 -0.00001302,-0.00002959,0.00121855,0.00073617,-0.00400097,-0.00499586,
 -0.00127395,-0.00118233,0.00004526,0.00017516,0.00028524,0.00023436,0.
 00025595,0.00019423,-0.00007903,0.00002820,-0.00001618,0.00000647,0.00
 001801,0.00003869,0.00001067,0.00000680,-0.00001606,0.00006348,-0.0000
 9453,-0.00006674,0.00001460,0.00004832,-0.00002600,0.00023637,-0.00077
 906,-0.00129687,-0.00030280,-0.00023202,-0.00013974,-0.00000987,-0.000
 03017,0.00000202,0.00000502,-0.00000049,-0.00002186,0.00009469,0.00043
 974,0.00020360,-0.00009954,-0.00002578,-0.00001410,0.00005987,-0.00005
 747,0.00000428,-0.00000124,0.00000643,0.00002211,0.00000108,0.00000411
 ,-0.00000437,-0.00004020,-0.00000616,-0.00001431,0.00000394,0.00000353
 ,-0.00000442,-0.00019793,0.00007861,0.00007972,-0.00002979,0.00000254,
 0.00000703,0.00057909,-0.00012429,0.00005097,-0.00010640,-0.00030685,-
 0.00005756,0.00000208,-0.00025274,-0.00024654,0.00003573,-0.00000372,0
 .00000985,-0.00016232,-0.00004076,-0.00008940,-0.00001148,0.00000431,-
 0.00001489,0.02110840,0.05805175,0.00304711,0.00945309,-0.01300575,-0.
 00010027,0.00012230,-0.00000628,-0.00227777,-0.00560630,-0.00784954,-0
 .00324612,-0.00153809,-0.00917457,-0.00006618,-0.00003862,-0.00005963,
 -0.00020648,-0.00076556,0.00285278,0.00109821,0.00004914,-0.00123681,-
 0.00060824,-0.00084873,0.00091554,-0.00137838,0.00132200,-0.00028651,-
 0.00042292,0.00026392,-0.00000547,0.00703388,0.00154543,0.00759526,-0.
 01470290,-0.02135998,-0.42395717,0.00057001,-0.00007763,-0.00046315,0.
 00017151,0.00019908,0.00006677,-0.00159144,-0.00243975,0.00064486,-0.0
 0035302,0.00022967,0.00150884,0.00000544,0.00000375,-0.00012246,0.0004
 9166,0.00006907,-0.00002970,0.00000426,-0.00002945,-0.00006202,0.00003
 164,0.00008037,0.00002422,0.00002050,-0.00002048,0.00003274,0.00002466
 ,-0.00062364,-0.00038848,0.00006376,-0.00013773,-0.00007956,0.00003305
 ,-0.00020918,-0.00040952,-0.00004484,0.00011206,0.00001375,-0.00000873
 ,0.00000067,-0.00010844,-0.00000267,-0.00003770,0.00002196,0.00004067,
 -0.00023908,-0.00038533,-0.00008324,-0.00002875,0.00002261,0.00005879,
 -0.00007460,0.00000098,-0.00001195,0.00012446,0.00001413,-0.00002276,0
 .00000961,0.00000363,-0.00009729,0.00003942,-0.00004838,-0.00001243,0.
 00001286,0.00001337,0.00019084,0.00000207,-0.00015248,0.00007772,-0.00
 003835,0.00001873,0.00056261,0.00005957,0.00022212,-0.00017610,-0.0001
 0306,0.00014294,-0.00000129,0.00010399,-0.00026305,0.00003665,-0.00010
 174,-0.00002397,0.00017271,0.00001663,0.00005244,0.00000582,-0.0000287
 9,0.00002485,0.01167354,0.02052804,0.44392574\\0.00001023,0.00003486,-
 0.00001366,-0.00000686,-0.00000086,-0.00000361,0.00002300,0.00001156,-
 0.00000004,0.00001052,0.00001055,0.00001714,-0.00000427,-0.00000107,-0
 .00000499,-0.00000101,0.00000818,0.00000728,-0.00000265,0.00000185,0.0
 0001865,0.00000555,-0.00000608,0.00000085,-0.00000288,-0.00000897,0.00
 000175,0.00000255,0.00000517,0.00000295,-0.00001776,-0.00001491,-0.000
 02488,-0.00000209,-0.00004150,-0.00003400,-0.00000006,0.00000075,0.000
 00254,0.00000656,-0.00000323,0.00000020,-0.00000836,0.00000031,-0.0000
 0210,0.00000544,0.00000093,0.00000368,0.00000005,0.00000049,0.00000369
 ,0.00000081,-0.00000424,-0.00000026,0.00000665,-0.00000030,0.00000158,
 -0.00000587,-0.00000390,-0.00000541,0.00000274,-0.00000067,0.00000090,
 0.00000284,0.00000484,0.00001257,-0.00000286,0.00000183,-0.00000396,0.
 00000185,0.00000061,0.00000042,0.00000568,-0.00000238,0.00000468,0.000
 00159,-0.00000044,0.00000284,-0.00000587,0.00000175,-0.00000596,0.0000
 0449,-0.00000069,-0.00000043,-0.00000085,-0.00000157,0.00000014,-0.000
 00055,-0.00000906,-0.00000333,-0.00000478,0.00000130,-0.00000220,0.000
 00013,-0.00000409,-0.00000107,-0.00000543,0.00000146,-0.00000213,-0.00
 000570,-0.00000134,-0.00000353,-0.00000194,0.00000374,0.00000060,0.000
 00197,-0.00000331,-0.00000082,-0.00000275,0.00001113,-0.00000202,-0.00
 000363,0.00000171,-0.00000211,0.00000415,0.00000654,0.00000398,-0.0000
 0400,-0.00000389,-0.00000591,-0.00000687,-0.00000361,-0.00000474,-0.00
 000010,-0.00000262,-0.00000156,0.00000037,0.00000918,0.00004226\\\@


 ADAM SMITH SAID, "THE REAL PRICE OF ANYTHING IS THE TOIL AND TROUBLE
 OF ACQUIRING IT."  BUT IN ALL UNDERTAKINGS WITH NATURE WE SHOULD FIRST
 READ CAREFULLY THE SMALL PRINT IN THE CONTRACT. THIS MIGHT DISCLOSE
 THAT THE REAL PRICE IS TO BE PAID BY THOSE WHO INHERIT THE DEPLETION
 AND DESPOILATION THAT FOLLOWS.
                               -- E. R. HARRISON IN "COSMOLOGY" (1980)
 Job cpu time:       1 days 10 hours  7 minutes 29.8 seconds.
 Elapsed time:       0 days  2 hours  8 minutes 26.0 seconds.
 File lengths (MBytes):  RWF=   2008 Int=      0 D2E=      0 Chk=     44 Scr=      1
 Normal termination of Gaussian 16 at Wed Oct  8 15:55:05 2025.
