 Entering Gaussian System, Link 0=g16
 Input=NECP0017.gjf
 Output=NECP0017.log
 Initial command:
 /usr/local/g16/l1.exe "/dados_01/scratch/Gau-2534887.inp" -scrdir="/dados_01/scratch/"
 Entering Link 1 = /usr/local/g16/l1.exe PID=   2534888.
  
 Copyright (c) 1988-2017, Gaussian, Inc.  All Rights Reserved.
  
 This is part of the Gaussian(R) 16 program.  It is based on
 the Gaussian(R) 09 system (copyright 2009, Gaussian, Inc.),
 the Gaussian(R) 03 system (copyright 2003, Gaussian, Inc.),
 the Gaussian(R) 98 system (copyright 1998, Gaussian, Inc.),
 the Gaussian(R) 94 system (copyright 1995, Gaussian, Inc.),
 the Gaussian 92(TM) system (copyright 1992, Gaussian, Inc.),
 the Gaussian 90(TM) system (copyright 1990, Gaussian, Inc.),
 the Gaussian 88(TM) system (copyright 1988, Gaussian, Inc.),
 the Gaussian 86(TM) system (copyright 1986, Carnegie Mellon
 University), and the Gaussian 82(TM) system (copyright 1983,
 Carnegie Mellon University). Gaussian is a federally registered
 trademark of Gaussian, Inc.
  
 This software contains proprietary and confidential information,
 including trade secrets, belonging to Gaussian, Inc.
  
 This software is provided under written license and may be
 used, copied, transmitted, or stored only in accord with that
 written license.
  
 The following legend is applicable only to US Government
 contracts under FAR:
  
                    RESTRICTED RIGHTS LEGEND
  
 Use, reproduction and disclosure by the US Government is
 subject to restrictions as set forth in subparagraphs (a)
 and (c) of the Commercial Computer Software - Restricted
 Rights clause in FAR 52.227-19.
  
 Gaussian, Inc.
 340 Quinnipiac St., Bldg. 40, Wallingford CT 06492
  
  
 ---------------------------------------------------------------
 Warning -- This program may not be used in any manner that
 competes with the business of Gaussian, Inc. or will provide
 assistance to any competitor of Gaussian, Inc.  The licensee
 of this program is prohibited from giving any competitor of
 Gaussian, Inc. access to this program.  By using this program,
 the user acknowledges that Gaussian, Inc. is engaged in the
 business of creating and licensing software in the field of
 computational chemistry and represents and warrants to the
 licensee that it is not a competitor of Gaussian, Inc. and that
 it will not use this program in any manner prohibited above.
 ---------------------------------------------------------------
  

 Cite this work as:
 Gaussian 16, Revision B.01,
 M. J. Frisch, G. W. Trucks, H. B. Schlegel, G. E. Scuseria, 
 M. A. Robb, J. R. Cheeseman, G. Scalmani, V. Barone, 
 G. A. Petersson, H. Nakatsuji, X. Li, M. Caricato, A. V. Marenich, 
 J. Bloino, B. G. Janesko, R. Gomperts, B. Mennucci, H. P. Hratchian, 
 J. V. Ortiz, A. F. Izmaylov, J. L. Sonnenberg, D. Williams-Young, 
 F. Ding, F. Lipparini, F. Egidi, J. Goings, B. Peng, A. Petrone, 
 T. Henderson, D. Ranasinghe, V. G. Zakrzewski, J. Gao, N. Rega, 
 G. Zheng, W. Liang, M. Hada, M. Ehara, K. Toyota, R. Fukuda, 
 J. Hasegawa, M. Ishida, T. Nakajima, Y. Honda, O. Kitao, H. Nakai, 
 T. Vreven, K. Throssell, J. A. Montgomery, Jr., J. E. Peralta, 
 F. Ogliaro, M. J. Bearpark, J. J. Heyd, E. N. Brothers, K. N. Kudin, 
 V. N. Staroverov, T. A. Keith, R. Kobayashi, J. Normand, 
 K. Raghavachari, A. P. Rendell, J. C. Burant, S. S. Iyengar, 
 J. Tomasi, M. Cossi, J. M. Millam, M. Klene, C. Adamo, R. Cammi, 
 J. W. Ochterski, R. L. Martin, K. Morokuma, O. Farkas, 
 J. B. Foresman, and D. J. Fox, Gaussian, Inc., Wallingford CT, 2016.
 
 ******************************************
 Gaussian 16:  ES64L-G16RevB.01 20-Dec-2017
                 7-Oct-2025 
 ******************************************
 %nprocs=16
 Will use up to   16 processors via shared memory.
 %mem=40GB
 %chk=NECP0017.chk
 ----------------------------------------------------------------------
 # opt freq=noraman M08HX/6-311++G** scf=xqc Empiricaldispersion=pfd In
 t(Grid=ultraFine)
 ----------------------------------------------------------------------
 1/18=20,19=15,26=4,38=1/1,3;
 2/9=110,12=2,17=6,18=5,40=1/2;
 3/5=4,6=6,7=1111,11=2,25=1,30=1,71=1,74=-74,75=-5,124=11/1,2,3;
 4//1;
 5/5=2,8=3,13=1,38=5/2,8;
 6/7=2,8=2,9=2,10=2,28=1/1;
 7//1,2,3,16;
 1/18=20,19=15,26=4/3(2);
 2/9=110/2;
 99//99;
 2/9=110/2;
 3/5=4,6=6,7=1111,11=2,25=1,30=1,71=1,74=-74,75=-5,124=11/1,2,3;
 4/5=5,16=3,69=1/1;
 5/5=2,8=3,13=1,38=5/2,8;
 7//1,2,3,16;
 1/18=20,19=15,26=4/3(-5);
 2/9=110/2;
 6/7=2,8=2,9=2,10=2,19=2,28=1/1;
 99/9=1/99;
 --------
 NECP0017
 --------
 Symbolic Z-matrix:
 Charge =  0 Multiplicity = 1
 S                     7.8812    2.6304    8.2088 
 Cl                   -0.6388    4.2704    6.3412 
 C                     5.6935    3.5546    5.0225 
 C                     0.7525    3.3043    4.2083 
 N                     6.728     2.8493    7.0924 
 H                     5.9403    2.7985    7.372 
 C                     8.487     4.2326    8.6112 
 O                     4.158     2.9722    6.7378 
 C                     6.8601    3.3453    5.7891 
 O                     8.961     1.8918    7.6468 
 C                     4.3426    3.2315    5.5545 
 O                     7.1831    2.1042    9.3374 
 C                     5.8331    4.1007    3.7483 
 H                     5.0693    4.2641    3.2433 
 C                     3.1972    3.2111    4.6206 
 H                     3.3584    3.1172    3.7095 
 C                    -0.4869    3.7162    4.7011 
 C                     8.1058    3.6221    5.2234 
 H                     8.8816    3.4529    5.7073 
 C                     7.0612    4.4063    3.2123 
 H                     7.0862    4.7855    2.3118 
 C                     0.7793    2.8614    2.8838 
 H                     1.6238    2.5861    2.5446 
 C                     7.6534    5.1124    9.2739 
 H                     6.7961    4.831     9.4672 
 C                     8.1917    4.1447    3.9529 
 H                     9.0129    4.3532    3.5533 
 C                    -1.625     3.698     3.9246 
 H                    -2.4364    3.9819    4.2795 
 C                    -0.3536    2.8425    2.1042 
 H                    -0.3066    2.5469    1.2237 
 C                     8.1522    6.3781    9.5886 
 H                     7.6111    6.9937    10.0287 
 C                     9.78      4.5807    8.2844 
 H                     10.3313   3.9776    7.8409 
 C                     10.2465   5.8313    8.6213 
 H                     11.1221   6.0689    8.4164 
 C                     9.4374    6.7171    9.2506 
 H                     9.7568    7.5657    9.4556 
 C                    -1.5572    3.2604    2.6258 
 H                    -2.3233    3.2463    2.0987 
 C                     1.9545    3.3233    5.0425 
 H                     1.829     3.4233    5.9585 
 

 GradGradGradGradGradGradGradGradGradGradGradGradGradGradGradGradGradGrad
 Berny optimization.
 Initialization pass.
                           ----------------------------
                           !    Initial Parameters    !
                           ! (Angstroms and Degrees)  !
 --------------------------                            --------------------------
 ! Name  Definition              Value          Derivative Info.                !
 --------------------------------------------------------------------------------
 ! R1    R(1,5)                  1.6199         estimate D2E/DX2                !
 ! R2    R(1,7)                  1.7595         estimate D2E/DX2                !
 ! R3    R(1,10)                 1.4238         estimate D2E/DX2                !
 ! R4    R(1,12)                 1.4276         estimate D2E/DX2                !
 ! R5    R(2,17)                 1.7379         estimate D2E/DX2                !
 ! R6    R(3,9)                  1.4115         estimate D2E/DX2                !
 ! R7    R(3,11)                 1.4874         estimate D2E/DX2                !
 ! R8    R(3,13)                 1.3933         estimate D2E/DX2                !
 ! R9    R(4,17)                 1.3959         estimate D2E/DX2                !
 ! R10   R(4,22)                 1.3968         estimate D2E/DX2                !
 ! R11   R(4,42)                 1.4632         estimate D2E/DX2                !
 ! R12   R(5,6)                  0.8374         estimate D2E/DX2                !
 ! R13   R(5,9)                  1.4007         estimate D2E/DX2                !
 ! R14   R(7,24)                 1.3813         estimate D2E/DX2                !
 ! R15   R(7,34)                 1.3783         estimate D2E/DX2                !
 ! R16   R(8,11)                 1.2254         estimate D2E/DX2                !
 ! R17   R(9,18)                 1.3959         estimate D2E/DX2                !
 ! R18   R(11,15)                1.478          estimate D2E/DX2                !
 ! R19   R(13,14)                0.9301         estimate D2E/DX2                !
 ! R20   R(13,20)                1.3744         estimate D2E/DX2                !
 ! R21   R(15,16)                0.93           estimate D2E/DX2                !
 ! R22   R(15,42)                1.3172         estimate D2E/DX2                !
 ! R23   R(17,28)                1.3779         estimate D2E/DX2                !
 ! R24   R(18,19)                0.9299         estimate D2E/DX2                !
 ! R25   R(18,26)                1.3765         estimate D2E/DX2                !
 ! R26   R(20,21)                0.9774         estimate D2E/DX2                !
 ! R27   R(20,26)                1.3766         estimate D2E/DX2                !
 ! R28   R(22,23)                0.9508         estimate D2E/DX2                !
 ! R29   R(22,30)                1.3754         estimate D2E/DX2                !
 ! R30   R(24,25)                0.9228         estimate D2E/DX2                !
 ! R31   R(24,32)                1.3964         estimate D2E/DX2                !
 ! R32   R(26,27)                0.9368         estimate D2E/DX2                !
 ! R33   R(28,29)                0.93           estimate D2E/DX2                !
 ! R34   R(28,40)                1.3722         estimate D2E/DX2                !
 ! R35   R(30,31)                0.93           estimate D2E/DX2                !
 ! R36   R(30,40)                1.3767         estimate D2E/DX2                !
 ! R37   R(32,33)                0.9303         estimate D2E/DX2                !
 ! R38   R(32,38)                1.3715         estimate D2E/DX2                !
 ! R39   R(34,35)                0.9297         estimate D2E/DX2                !
 ! R40   R(34,36)                1.3766         estimate D2E/DX2                !
 ! R41   R(36,37)                0.9301         estimate D2E/DX2                !
 ! R42   R(36,38)                1.3547         estimate D2E/DX2                !
 ! R43   R(38,39)                0.9296         estimate D2E/DX2                !
 ! R44   R(40,41)                0.93           estimate D2E/DX2                !
 ! R45   R(42,43)                0.9299         estimate D2E/DX2                !
 ! A1    A(5,1,7)              106.2401         estimate D2E/DX2                !
 ! A2    A(5,1,10)             109.752          estimate D2E/DX2                !
 ! A3    A(5,1,12)             104.272          estimate D2E/DX2                !
 ! A4    A(7,1,10)             107.5487         estimate D2E/DX2                !
 ! A5    A(7,1,12)             108.8566         estimate D2E/DX2                !
 ! A6    A(10,1,12)            119.4516         estimate D2E/DX2                !
 ! A7    A(9,3,11)             121.6124         estimate D2E/DX2                !
 ! A8    A(9,3,13)             118.1629         estimate D2E/DX2                !
 ! A9    A(11,3,13)            120.2143         estimate D2E/DX2                !
 ! A10   A(17,4,22)            116.4448         estimate D2E/DX2                !
 ! A11   A(17,4,42)            121.6184         estimate D2E/DX2                !
 ! A12   A(22,4,42)            121.9336         estimate D2E/DX2                !
 ! A13   A(1,5,6)              115.5523         estimate D2E/DX2                !
 ! A14   A(1,5,9)              128.4583         estimate D2E/DX2                !
 ! A15   A(6,5,9)              114.8889         estimate D2E/DX2                !
 ! A16   A(1,7,24)             118.8102         estimate D2E/DX2                !
 ! A17   A(1,7,34)             119.9155         estimate D2E/DX2                !
 ! A18   A(24,7,34)            121.2653         estimate D2E/DX2                !
 ! A19   A(3,9,5)              118.6776         estimate D2E/DX2                !
 ! A20   A(3,9,18)             119.2135         estimate D2E/DX2                !
 ! A21   A(5,9,18)             122.1044         estimate D2E/DX2                !
 ! A22   A(3,11,8)             121.883          estimate D2E/DX2                !
 ! A23   A(3,11,15)            118.7403         estimate D2E/DX2                !
 ! A24   A(8,11,15)            119.3737         estimate D2E/DX2                !
 ! A25   A(3,13,14)            118.8886         estimate D2E/DX2                !
 ! A26   A(3,13,20)            122.2312         estimate D2E/DX2                !
 ! A27   A(14,13,20)           118.8802         estimate D2E/DX2                !
 ! A28   A(11,15,16)           119.0836         estimate D2E/DX2                !
 ! A29   A(11,15,42)           121.8424         estimate D2E/DX2                !
 ! A30   A(16,15,42)           119.0739         estimate D2E/DX2                !
 ! A31   A(2,17,4)             120.3228         estimate D2E/DX2                !
 ! A32   A(2,17,28)            117.6367         estimate D2E/DX2                !
 ! A33   A(4,17,28)            122.0402         estimate D2E/DX2                !
 ! A34   A(9,18,19)            119.84           estimate D2E/DX2                !
 ! A35   A(9,18,26)            120.335          estimate D2E/DX2                !
 ! A36   A(19,18,26)           119.825          estimate D2E/DX2                !
 ! A37   A(13,20,21)           117.9325         estimate D2E/DX2                !
 ! A38   A(13,20,26)           118.8005         estimate D2E/DX2                !
 ! A39   A(21,20,26)           123.2569         estimate D2E/DX2                !
 ! A40   A(4,22,23)            116.5591         estimate D2E/DX2                !
 ! A41   A(4,22,30)            121.7377         estimate D2E/DX2                !
 ! A42   A(23,22,30)           121.6967         estimate D2E/DX2                !
 ! A43   A(7,24,25)            117.8346         estimate D2E/DX2                !
 ! A44   A(7,24,32)            118.0259         estimate D2E/DX2                !
 ! A45   A(25,24,32)           124.1299         estimate D2E/DX2                !
 ! A46   A(18,26,20)           121.1637         estimate D2E/DX2                !
 ! A47   A(18,26,27)           122.2049         estimate D2E/DX2                !
 ! A48   A(20,26,27)           116.6241         estimate D2E/DX2                !
 ! A49   A(17,28,29)           120.1025         estimate D2E/DX2                !
 ! A50   A(17,28,40)           119.7884         estimate D2E/DX2                !
 ! A51   A(29,28,40)           120.1091         estimate D2E/DX2                !
 ! A52   A(22,30,31)           119.9613         estimate D2E/DX2                !
 ! A53   A(22,30,40)           120.0798         estimate D2E/DX2                !
 ! A54   A(31,30,40)           119.959          estimate D2E/DX2                !
 ! A55   A(24,32,33)           119.911          estimate D2E/DX2                !
 ! A56   A(24,32,38)           120.2155         estimate D2E/DX2                !
 ! A57   A(33,32,38)           119.8735         estimate D2E/DX2                !
 ! A58   A(7,34,35)            120.3674         estimate D2E/DX2                !
 ! A59   A(7,34,36)            119.2941         estimate D2E/DX2                !
 ! A60   A(35,34,36)           120.3385         estimate D2E/DX2                !
 ! A61   A(34,36,37)           119.8124         estimate D2E/DX2                !
 ! A62   A(34,36,38)           120.3504         estimate D2E/DX2                !
 ! A63   A(37,36,38)           119.8372         estimate D2E/DX2                !
 ! A64   A(32,38,36)           120.8329         estimate D2E/DX2                !
 ! A65   A(32,38,39)           119.5558         estimate D2E/DX2                !
 ! A66   A(36,38,39)           119.6113         estimate D2E/DX2                !
 ! A67   A(28,40,30)           119.9074         estimate D2E/DX2                !
 ! A68   A(28,40,41)           120.0379         estimate D2E/DX2                !
 ! A69   A(30,40,41)           120.0548         estimate D2E/DX2                !
 ! A70   A(4,42,15)            126.2504         estimate D2E/DX2                !
 ! A71   A(4,42,43)            116.8779         estimate D2E/DX2                !
 ! A72   A(15,42,43)           116.8716         estimate D2E/DX2                !
 ! D1    D(7,1,5,6)           -102.1369         estimate D2E/DX2                !
 ! D2    D(7,1,5,9)             65.141          estimate D2E/DX2                !
 ! D3    D(10,1,5,6)           141.8694         estimate D2E/DX2                !
 ! D4    D(10,1,5,9)           -50.8528         estimate D2E/DX2                !
 ! D5    D(12,1,5,6)            12.7894         estimate D2E/DX2                !
 ! D6    D(12,1,5,9)          -179.9328         estimate D2E/DX2                !
 ! D7    D(5,1,7,24)            67.6564         estimate D2E/DX2                !
 ! D8    D(5,1,7,34)          -113.4234         estimate D2E/DX2                !
 ! D9    D(10,1,7,24)         -174.8731         estimate D2E/DX2                !
 ! D10   D(10,1,7,34)            4.047          estimate D2E/DX2                !
 ! D11   D(12,1,7,24)          -44.1096         estimate D2E/DX2                !
 ! D12   D(12,1,7,34)          134.8105         estimate D2E/DX2                !
 ! D13   D(11,3,9,5)            -1.4675         estimate D2E/DX2                !
 ! D14   D(11,3,9,18)          177.775          estimate D2E/DX2                !
 ! D15   D(13,3,9,5)           177.3616         estimate D2E/DX2                !
 ! D16   D(13,3,9,18)           -3.396          estimate D2E/DX2                !
 ! D17   D(9,3,11,8)            11.6697         estimate D2E/DX2                !
 ! D18   D(9,3,11,15)         -167.698          estimate D2E/DX2                !
 ! D19   D(13,3,11,8)         -167.1357         estimate D2E/DX2                !
 ! D20   D(13,3,11,15)          13.4965         estimate D2E/DX2                !
 ! D21   D(9,3,13,14)         -178.3784         estimate D2E/DX2                !
 ! D22   D(9,3,13,20)            1.6139         estimate D2E/DX2                !
 ! D23   D(11,3,13,14)           0.4676         estimate D2E/DX2                !
 ! D24   D(11,3,13,20)        -179.54           estimate D2E/DX2                !
 ! D25   D(22,4,17,2)          179.3554         estimate D2E/DX2                !
 ! D26   D(22,4,17,28)          -0.4365         estimate D2E/DX2                !
 ! D27   D(42,4,17,2)           -0.0032         estimate D2E/DX2                !
 ! D28   D(42,4,17,28)        -179.795          estimate D2E/DX2                !
 ! D29   D(17,4,22,23)         179.5923         estimate D2E/DX2                !
 ! D30   D(17,4,22,30)           0.4984         estimate D2E/DX2                !
 ! D31   D(42,4,22,23)          -1.0514         estimate D2E/DX2                !
 ! D32   D(42,4,22,30)         179.8548         estimate D2E/DX2                !
 ! D33   D(17,4,42,15)        -165.8481         estimate D2E/DX2                !
 ! D34   D(17,4,42,43)          14.2197         estimate D2E/DX2                !
 ! D35   D(22,4,42,15)          14.8287         estimate D2E/DX2                !
 ! D36   D(22,4,42,43)        -165.1035         estimate D2E/DX2                !
 ! D37   D(1,5,9,3)           -174.8387         estimate D2E/DX2                !
 ! D38   D(1,5,9,18)             5.9419         estimate D2E/DX2                !
 ! D39   D(6,5,9,3)             -7.4905         estimate D2E/DX2                !
 ! D40   D(6,5,9,18)           173.2901         estimate D2E/DX2                !
 ! D41   D(1,7,24,25)           -1.2592         estimate D2E/DX2                !
 ! D42   D(1,7,24,32)          179.8174         estimate D2E/DX2                !
 ! D43   D(34,7,24,25)         179.8358         estimate D2E/DX2                !
 ! D44   D(34,7,24,32)           0.9124         estimate D2E/DX2                !
 ! D45   D(1,7,34,35)            0.8893         estimate D2E/DX2                !
 ! D46   D(1,7,34,36)         -179.1324         estimate D2E/DX2                !
 ! D47   D(24,7,34,35)         179.7824         estimate D2E/DX2                !
 ! D48   D(24,7,34,36)          -0.2393         estimate D2E/DX2                !
 ! D49   D(3,9,18,19)         -177.3727         estimate D2E/DX2                !
 ! D50   D(3,9,18,26)            2.6477         estimate D2E/DX2                !
 ! D51   D(5,9,18,19)            1.8427         estimate D2E/DX2                !
 ! D52   D(5,9,18,26)         -178.137          estimate D2E/DX2                !
 ! D53   D(3,11,15,16)          20.0907         estimate D2E/DX2                !
 ! D54   D(3,11,15,42)        -159.8523         estimate D2E/DX2                !
 ! D55   D(8,11,15,16)        -159.2932         estimate D2E/DX2                !
 ! D56   D(8,11,15,42)          20.7638         estimate D2E/DX2                !
 ! D57   D(3,13,20,21)         179.8804         estimate D2E/DX2                !
 ! D58   D(3,13,20,26)           0.9968         estimate D2E/DX2                !
 ! D59   D(14,13,20,21)         -0.1272         estimate D2E/DX2                !
 ! D60   D(14,13,20,26)       -179.0108         estimate D2E/DX2                !
 ! D61   D(11,15,42,4)        -179.4573         estimate D2E/DX2                !
 ! D62   D(11,15,42,43)          0.4749         estimate D2E/DX2                !
 ! D63   D(16,15,42,4)           0.5997         estimate D2E/DX2                !
 ! D64   D(16,15,42,43)       -179.4682         estimate D2E/DX2                !
 ! D65   D(2,17,28,29)           0.4575         estimate D2E/DX2                !
 ! D66   D(2,17,28,40)        -179.5805         estimate D2E/DX2                !
 ! D67   D(4,17,28,29)        -179.7452         estimate D2E/DX2                !
 ! D68   D(4,17,28,40)           0.2167         estimate D2E/DX2                !
 ! D69   D(9,18,26,20)           0.0042         estimate D2E/DX2                !
 ! D70   D(9,18,26,27)         178.9889         estimate D2E/DX2                !
 ! D71   D(19,18,26,20)       -179.9755         estimate D2E/DX2                !
 ! D72   D(19,18,26,27)         -0.9908         estimate D2E/DX2                !
 ! D73   D(13,20,26,18)         -1.8346         estimate D2E/DX2                !
 ! D74   D(13,20,26,27)        179.1263         estimate D2E/DX2                !
 ! D75   D(21,20,26,18)        179.3449         estimate D2E/DX2                !
 ! D76   D(21,20,26,27)          0.3058         estimate D2E/DX2                !
 ! D77   D(4,22,30,31)         179.6706         estimate D2E/DX2                !
 ! D78   D(4,22,30,40)          -0.3425         estimate D2E/DX2                !
 ! D79   D(23,22,30,31)          0.6233         estimate D2E/DX2                !
 ! D80   D(23,22,30,40)       -179.3899         estimate D2E/DX2                !
 ! D81   D(7,24,32,33)         179.518          estimate D2E/DX2                !
 ! D82   D(7,24,32,38)          -0.4607         estimate D2E/DX2                !
 ! D83   D(25,24,32,33)          0.6682         estimate D2E/DX2                !
 ! D84   D(25,24,32,38)       -179.3105         estimate D2E/DX2                !
 ! D85   D(17,28,40,30)         -0.0357         estimate D2E/DX2                !
 ! D86   D(17,28,40,41)        179.9727         estimate D2E/DX2                !
 ! D87   D(29,28,40,30)        179.9263         estimate D2E/DX2                !
 ! D88   D(29,28,40,41)         -0.0654         estimate D2E/DX2                !
 ! D89   D(22,30,40,28)          0.0979         estimate D2E/DX2                !
 ! D90   D(22,30,40,41)       -179.9105         estimate D2E/DX2                !
 ! D91   D(31,30,40,28)       -179.9153         estimate D2E/DX2                !
 ! D92   D(31,30,40,41)          0.0764         estimate D2E/DX2                !
 ! D93   D(24,32,38,36)         -0.6787         estimate D2E/DX2                !
 ! D94   D(24,32,38,39)        179.2821         estimate D2E/DX2                !
 ! D95   D(33,32,38,36)        179.3426         estimate D2E/DX2                !
 ! D96   D(33,32,38,39)         -0.6966         estimate D2E/DX2                !
 ! D97   D(7,34,36,37)         179.0234         estimate D2E/DX2                !
 ! D98   D(7,34,36,38)          -0.9201         estimate D2E/DX2                !
 ! D99   D(35,34,36,37)         -0.9982         estimate D2E/DX2                !
 ! D100  D(35,34,36,38)        179.0582         estimate D2E/DX2                !
 ! D101  D(34,36,38,32)          1.3813         estimate D2E/DX2                !
 ! D102  D(34,36,38,39)       -178.5795         estimate D2E/DX2                !
 ! D103  D(37,36,38,32)       -178.5623         estimate D2E/DX2                !
 ! D104  D(37,36,38,39)          1.477          estimate D2E/DX2                !
 --------------------------------------------------------------------------------
 Trust Radius=3.00D-01 FncErr=1.00D-07 GrdErr=1.00D-06 EigMax=2.50D+02 EigMin=1.00D-04
 Number of steps in this run=    231 maximum allowed number of steps=    258.
 GradGradGradGradGradGradGradGradGradGradGradGradGradGradGradGradGradGrad

                          Input orientation:                          
 ---------------------------------------------------------------------
 Center     Atomic      Atomic             Coordinates (Angstroms)
 Number     Number       Type             X           Y           Z
 ---------------------------------------------------------------------
      1         16           0        7.881200    2.630400    8.208800
      2         17           0       -0.638800    4.270400    6.341200
      3          6           0        5.693500    3.554600    5.022500
      4          6           0        0.752500    3.304300    4.208300
      5          7           0        6.728000    2.849300    7.092400
      6          1           0        5.940300    2.798500    7.372000
      7          6           0        8.487000    4.232600    8.611200
      8          8           0        4.158000    2.972200    6.737800
      9          6           0        6.860100    3.345300    5.789100
     10          8           0        8.961000    1.891800    7.646800
     11          6           0        4.342600    3.231500    5.554500
     12          8           0        7.183100    2.104200    9.337400
     13          6           0        5.833100    4.100700    3.748300
     14          1           0        5.069300    4.264100    3.243300
     15          6           0        3.197200    3.211100    4.620600
     16          1           0        3.358400    3.117200    3.709500
     17          6           0       -0.486900    3.716200    4.701100
     18          6           0        8.105800    3.622100    5.223400
     19          1           0        8.881600    3.452900    5.707300
     20          6           0        7.061200    4.406300    3.212300
     21          1           0        7.086200    4.785500    2.311800
     22          6           0        0.779300    2.861400    2.883800
     23          1           0        1.623800    2.586100    2.544600
     24          6           0        7.653400    5.112400    9.273900
     25          1           0        6.796100    4.831000    9.467200
     26          6           0        8.191700    4.144700    3.952900
     27          1           0        9.012900    4.353200    3.553300
     28          6           0       -1.625000    3.698000    3.924600
     29          1           0       -2.436400    3.981900    4.279500
     30          6           0       -0.353600    2.842500    2.104200
     31          1           0       -0.306600    2.546900    1.223700
     32          6           0        8.152200    6.378100    9.588600
     33          1           0        7.611100    6.993700   10.028700
     34          6           0        9.780000    4.580700    8.284400
     35          1           0       10.331300    3.977600    7.840900
     36          6           0       10.246500    5.831300    8.621300
     37          1           0       11.122100    6.068900    8.416400
     38          6           0        9.437400    6.717100    9.250600
     39          1           0        9.756800    7.565700    9.455600
     40          6           0       -1.557200    3.260400    2.625800
     41          1           0       -2.323300    3.246300    2.098700
     42          6           0        1.954500    3.323300    5.042500
     43          1           0        1.829000    3.423300    5.958500
 ---------------------------------------------------------------------
                    Distance matrix (angstroms):
                    1          2          3          4          5
     1  S    0.000000
     2  Cl   8.875130   0.000000
     3  C    3.974001   6.507639   0.000000
     4  C    8.202226   2.723661   5.013886   0.000000
     5  N    1.619919   7.540131   2.419116   6.650689   0.000000
     6  H    2.120279   6.820088   2.480473   6.097385   0.837394
     7  C    1.759535   9.403965   4.598053   8.948171   2.704506
     8  O    4.017821   4.985169   2.374701   4.255125   2.597257
     9  C    2.721888   7.575891   1.411537   6.308993   1.400735
    10  O    1.423848   9.975895   4.508704   9.010988   2.492078
    11  C    4.464115   5.149034   1.487397   3.834889   2.863799
    12  O    1.427574   8.651691   4.789669   8.312672   2.408799
    13  C    5.123725   6.974053   1.393305   5.163172   3.681012
    14  H    5.935651   6.494569   2.014589   4.526279   4.423631
    15  C    5.928933   4.335606   2.551672   2.480975   4.325187
    16  H    6.398156   4.922735   2.714402   2.659797   4.782258
    17  C    9.138272   1.737855   6.190861   1.395932   7.650138
    18  C    3.153812   8.839559   2.421592   7.429835   2.447185
    19  H    2.816879   9.576437   3.262403   8.267488   2.630747
    20  C    5.365746   8.312550   2.423390   6.481213   4.194097
    21  H    6.328593   8.727945   3.286734   6.775428   5.170233
    22  C    8.879525   3.993733   5.404066   1.396846   7.286940
    23  H    8.440390   4.729735   4.862143   2.010690   6.841390
    24  C    2.710471   8.835738   4.933797   8.749397   3.276725
    25  H    2.757472   8.084794   4.753975   8.155485   3.093776
    26  C    4.527935   9.148634   2.780875   7.490874   3.698235
    27  H    5.091411  10.046619   3.716817   8.352450   4.472998
    28  C   10.481506   2.672113   7.401783   2.426518   8.973732
    29  H   11.122896   2.750492   8.174956   3.260873   9.653052
    30  C   10.252954   4.480224   6.752109   2.421560   8.662058
    31  H   10.762837   5.410140   7.172694   3.256253   9.166171
    32  C    4.002817   9.605711   5.904797   9.651499   4.551021
    33  H    4.735333   9.437948   6.369194   9.722609   5.155364
    34  C    2.723018  10.603005   5.328448   9.986969   3.705849
    35  H    2.820157  11.076007   5.443482  10.266573   3.849297
    36  C    4.001320  11.230540   6.234143  10.770159   4.858982
    37  H    4.729674  12.077244   6.878224  11.527347   5.605971
    38  C    4.495356  10.769436   6.472636  10.606577   5.192163
    39  H    5.424903  11.341384   7.228534  11.259268   6.082990
    40  C   10.984088   3.958252   7.642210   2.800169   9.421468
    41  H   11.909848   4.678154   8.538896   3.730191  10.345080
    42  C    6.755097   3.051037   3.746201   1.463234   5.216615
    43  H    6.505510   2.637058   3.978404   2.058206   5.061166
                    6          7          8          9         10
     6  H    0.000000
     7  C    3.174577   0.000000
     8  O    1.899730   4.882466   0.000000
     9  C    1.910653   3.376145   2.888006   0.000000
    10  O    3.165793   2.575672   5.006232   3.158717   0.000000
    11  C    2.458341   5.246110   1.225362   2.530967   5.244248
    12  O    2.426809   2.599540   4.081982   3.772942   2.462554
    13  C    3.852067   5.541514   3.607850   2.406288   5.464549
    14  H    4.466854   6.363648   3.835493   3.245344   6.337503
    15  C    3.907050   6.704501   2.337252   3.847108   6.642276
    16  H    4.492403   7.181457   3.135440   4.079052   6.956512
    17  C    7.020312   9.802369   5.126088   7.436378  10.063220
    18  C    3.159777   3.463411   4.277955   1.395852   3.098092
    19  H    3.442486   3.032536   4.858539   2.026014   2.490983
    20  C    4.598319   5.586698   4.786895   2.793933   5.440289
    21  H    5.555797   6.476911   5.608198   3.770532   6.352212
    22  C    6.839870   9.700100   5.126520   6.756557   9.516644
    23  H    6.479281   9.306885   4.914689   6.206610   8.963760
    24  C    3.450517   1.381343   4.819759   3.986954   3.837908
    25  H    3.041926   1.987451   4.226622   3.967344   4.079160
    26  C    4.309443   4.668478   5.039956   2.404959   4.394574
    27  H    5.142026   5.086597   5.968103   3.263313   4.776811
    28  C    8.362262  11.158072   6.471783   8.694693  11.365761
    29  H    9.007391  11.753601   7.109771   9.439760  12.066812
    30  C    8.207608  11.064793   6.468509   8.115957  10.880534
    31  H    8.768618  11.607934   7.107660   8.534747  11.294856
    32  C    4.755981   2.381296   5.973345   5.030268   4.954960
    33  H    5.239211   3.224931   6.239101   5.643495   5.790083
    34  C    4.330359   1.378340   6.048647   4.034669   2.882270
    35  H    4.570670   2.014902   6.351165   4.081534   2.503190
    36  C    5.413131   2.377348   6.985117   5.066484   4.256973
    37  H    6.215894   3.217716   7.804226   5.699592   4.765585
    38  C    5.578017   2.735842   6.943378   5.476632   5.107118
    39  H    6.452384   3.665373   7.735195   6.296497   6.008177
    40  C    8.885509  11.732695   7.046639   8.992475  11.735248
    41  H    9.813017  12.658911   7.975188   9.897661  12.647194
    42  C    4.646352   7.499067   2.802271   4.962137   7.610691
    43  H    4.392169   7.212541   2.497006   5.034555   7.487408
                   11         12         13         14         15
    11  C    0.000000
    12  O    4.863083   0.000000
    13  C    2.497891   6.086588   0.000000
    14  H    2.633629   6.802306   0.930116   0.000000
    15  C    1.478014   6.273821   2.915521   2.551573   0.000000
    16  H    2.094216   6.879517   2.663253   2.111848   0.930003
    17  C    4.928214   9.106191   6.402973   5.770332   3.719435
    18  C    3.797877   4.481115   2.751389   3.681480   4.962524
    19  H    4.546965   4.228655   3.681125   4.611179   5.792390
    20  C    3.775823   6.544568   1.374379   1.997210   4.282792
    21  H    4.522981   7.520493   2.025523   2.281981   4.788905
    22  C    4.468414   9.123100   5.274857   4.527793   2.997500
    23  H    4.107056   8.790914   4.632614   3.895553   2.678804
    24  C    5.322886   3.045403   5.905022   6.615536   6.717579
    25  H    4.887462   2.757182   5.845214   6.483837   6.250255
    26  C    4.267860   5.845832   2.367866   3.204243   5.124691
    27  H    5.203337   6.470084   3.195764   3.956769   6.022117
    28  C    6.203745  10.460460   7.471044   6.752651   4.896438
    29  H    6.938556  11.029184   8.287395   7.582142   5.696309
    30  C    5.840393  10.472159   6.523909   5.720694   4.367644
    31  H    6.390584  11.050960   6.817904   5.993985   4.925110
    32  C    6.378723   4.389587   6.683852   7.364516   7.698243
    33  H    6.697440   4.956641   7.139619   7.742940   7.939655
    34  C    6.232015   3.739753   6.031967   6.906781   7.657186
    35  H    6.453590   3.957310   6.082625   6.993472   7.864683
    36  C    7.142847   4.877345   6.798471   7.627739   8.518432
    37  H    7.886883   5.664169   7.323830   8.164230   9.240084
    38  C    7.194967   5.135002   7.078971   7.822094   8.524613
    39  H    7.957225   6.038699   7.744348   8.453750   9.239487
    40  C    6.586787  11.080398   7.522144   6.730470   5.156159
    41  H    7.508462  12.003117   8.365288   7.549607   6.069361
    42  C    2.444093   6.875364   4.162072   3.718091   1.317153
    43  H    2.553074   6.467100   4.623491   4.310313   1.925351
                   16         17         18         19         20
    16  H    0.000000
    17  C    4.016018   0.000000
    18  C    5.008455   8.609073   0.000000
    19  H    5.882996   9.426057   0.929867   0.000000
    20  C    3.952178   7.724414   2.398058   3.232314   0.000000
    21  H    4.316629   8.012740   3.297044   4.065551   0.977404
    22  C    2.720105   2.374137   7.728518   8.600540   6.477414
    23  H    2.155898   3.222216   7.089823   7.964275   5.772718
    24  C    7.306873   9.440570   4.339609   4.121050   6.131254
    25  H    6.921416   8.774997   4.602889   4.515010   6.274904
    26  C    4.947301   8.721325   1.376466   2.008101   1.376573
    27  H    5.790118   9.590069   2.036313   2.338268   1.981977
    28  C    5.021740   1.377881   9.817388  10.659584   8.744091
    29  H    5.886622   2.012186  10.590486  11.419964   9.566788
    30  C    4.053565   2.743175   9.049786   9.931960   7.658500
    31  H    4.465050   3.673157   9.376680  10.263845   7.854704
    32  C    8.256985  10.276547   5.162621   4.914602   6.762801
    33  H    8.546637  10.232445   5.890953   5.729392   7.311658
    34  C    8.019257  10.908558   3.618229   2.953049   5.757472
    35  H    8.150466  11.267658   3.454061   2.632335   5.683421
    36  C    8.884708  11.620994   4.583545   4.001392   6.436928
    37  H    9.546857  12.414005   5.027936   4.382068   6.807188
    38  C    8.978714  11.322327   5.250764   4.849628   6.888192
    39  H    9.682269  11.931358   6.015754   5.633014   7.498457
    40  C    5.035676   2.379110  10.012588  10.885828   8.714005
    41  H    5.907035   3.219574  10.893627  11.773464   9.521268
    42  C    1.946870   2.496269   6.161209   6.960134   5.531809
    43  H    2.736926   2.651460   6.322825   7.057134   5.990311
                   21         22         23         24         25
    21  H    0.000000
    22  C    6.618635   0.000000
    23  H    5.893163   0.950803   0.000000
    24  C    6.992812   9.651613   9.381991   0.000000
    25  H    7.161423   9.133584   8.928306   0.922775   0.000000
    26  C    2.079895   7.598257   6.895640   5.435002   5.729416
    27  H    2.332462   8.394395   7.664132   5.928734   6.333775
    28  C    8.925737   2.750240   3.700733  10.802974  10.144902
    29  H    9.756922   3.680248   4.630698  11.314863  10.624136
    30  C    7.692137   1.375353   2.042010  10.984948  10.454000
    31  H    7.800563   2.008487   2.339393  11.608148  11.118487
    32  C    7.524929  10.567932  10.325561   1.396365   2.060889
    33  H    8.043769  10.714429  10.549239   2.027511   2.378398
    34  C    6.555185  10.636497  10.170906   2.405045   3.219523
    35  H    6.461759  10.819401  10.286283   3.242284   3.983815
    36  C    7.133792  11.461548  11.036692   2.768912   3.690719
    37  H    7.429788  12.160232  11.697249   3.698929   4.620698
    38  C    7.576686  11.417761  11.094501   2.399638   3.252807
    39  H    8.117604  12.079507  11.777267   3.236663   4.030442
    40  C    8.782533   2.384323   3.252697  11.509226  10.910965
    41  H    9.536941   3.223454   4.026697  12.429818  11.830872
    42  C    5.994088   2.500886   2.625325   7.320047   6.729949
    43  H    6.541572   3.297178   3.521040   6.911481   6.242169
                   26         27         28         29         30
    26  C    0.000000
    27  H    0.936761   0.000000
    28  C    9.826899  10.664524   0.000000
    29  H   10.634363  11.478314   0.930012   0.000000
    30  C    8.839433   9.597574   2.379537   3.219972   0.000000
    31  H    9.067668   9.774602   3.218396   3.991640   0.929983
    32  C    6.062240   6.423852  11.612815  12.084981  11.868671
    33  H    6.735669   7.132187  11.551070  11.961459  11.977755
    34  C    4.634079   4.798282  12.241774  12.870051  11.996085
    35  H    4.440986   4.501418  12.584462  13.255103  12.180528
    36  C    5.372223   5.421363  12.943820  13.532459  12.797173
    37  H    5.675616   5.571543  13.721734  14.328379  13.488707
    38  C    6.019521   6.182835  12.643494  13.159798  12.725849
    39  H    6.665770   6.760968  13.232401  13.722600  13.363079
    40  C    9.878473  10.666840   1.372214   2.007057   1.376721
    41  H   10.714962  11.482618   2.006381   2.304298   2.010672
    42  C    6.384715   7.286935   3.768676   4.505100   3.767241
    43  H    6.710201   7.632701   4.017751   4.617869   4.467292
                   31         32         33         34         35
    31  H    0.000000
    32  C   12.498038   0.000000
    33  H   12.648796   0.930291   0.000000
    34  C   12.479156   2.753419   3.683650   0.000000
    35  H   12.609487   3.683114   4.613330   0.929706   0.000000
    36  C   13.299612   2.370813   3.205820   1.376635   2.013062
    37  H   13.955451   3.207797   3.972642   2.008332   2.308701
    38  C   13.295384   1.371461   2.004325   2.369625   3.207986
    39  H   13.936447   2.000706   2.293394   3.206629   3.976401
    40  C    2.009718  12.347999  12.361156  12.739507  13.001849
    41  H    2.306917  13.253033  13.252178  13.657722  13.915695
    42  C    4.505397   8.271053   8.386367   8.563260   8.856067
    43  H    5.267561   7.867104   7.921298   8.364675   8.725811
                   36         37         38         39         40
    36  C    0.000000
    37  H    0.930115   0.000000
    38  C    1.354734   1.988534   0.000000
    39  H    1.985952   2.276926   0.929604   0.000000
    40  C   13.486396  14.219120  13.293531  13.899222   0.000000
    41  H   14.395361  15.121481  14.195429  14.788847   0.930023
    42  C    9.373107  10.147237   9.231456   9.917121   4.263383
    43  H    9.151135   9.970064   8.920470   9.604124   4.753922
                   41         42         43
    41  H    0.000000
    42  C    5.193405   0.000000
    43  H    5.671947   0.929950   0.000000
 Stoichiometry    C21H16ClNO3S
 Framework group  C1[X(C21H16ClNO3S)]
 Deg. of freedom   123
 Full point group                 C1      NOp   1
 Largest Abelian subgroup         C1      NOp   1
 Largest concise Abelian subgroup C1      NOp   1
                         Standard orientation:                         
 ---------------------------------------------------------------------
 Center     Atomic      Atomic             Coordinates (Angstroms)
 Number     Number       Type             X           Y           Z
 ---------------------------------------------------------------------
      1         16           0       -3.410290   -0.420608    1.496377
      2         17           0        4.959181   -2.634235   -0.458038
      3          6           0       -0.187404    1.326263   -0.037940
      4          6           0        4.652948    0.022210    0.059502
      5          7           0       -1.921587    0.048275    1.062732
      6          1           0       -1.317637   -0.521680    1.170542
      7          6           0       -4.255713   -0.815963    0.004761
      8          8           0        0.547179   -0.737366    0.879135
      9          6           0       -1.545004    1.172303    0.316541
     10          8           0       -4.099103    0.666807    2.104988
     11          6           0        0.845879    0.345095    0.388657
     12          8           0       -3.198747   -1.621329    2.238998
     13          6           0        0.166328    2.418439   -0.827448
     14          1           0        1.054316    2.517186   -1.085987
     15          6           0        2.271745    0.698548    0.225861
     16          1           0        2.508221    1.593466    0.135816
     17          6           0        5.541598   -1.011158   -0.242290
     18          6           0       -2.465170    2.147719   -0.071095
     19          1           0       -3.354891    2.073828    0.188888
     20          6           0       -0.752427    3.354815   -1.237334
     21          1           0       -0.435035    4.096990   -1.788475
     22          6           0        5.209933    1.291880    0.229451
     23          1           0        4.605399    1.998056    0.429153
     24          6           0       -3.843279   -1.915312   -0.722865
     25          1           0       -3.121928   -2.395742   -0.406080
     26          6           0       -2.062315    3.218348   -0.836680
     27          1           0       -2.660039    3.880350   -1.123040
     28          6           0        6.895844   -0.795004   -0.375892
     29          1           0        7.463173   -1.502815   -0.580989
     30          6           0        6.560793    1.513100    0.095902
     31          1           0        6.904670    2.369612    0.209942
     32          6           0       -4.528194   -2.216308   -1.901901
     33          1           0       -4.268176   -2.946847   -2.415850
     34          6           0       -5.322967   -0.046115   -0.405267
     35          1           0       -5.591856    0.689452    0.095725
     36          6           0       -5.986483   -0.377658   -1.564987
     37          1           0       -6.716118    0.128745   -1.841217
     38          6           0       -5.583019   -1.438117   -2.305221
     39          1           0       -6.026121   -1.640899   -3.096867
     40          6           0        7.404603    0.468056   -0.206134
     41          1           0        8.318164    0.617813   -0.295133
     42          6           0        3.216876   -0.218580    0.203634
     43          1           0        2.945485   -1.103983    0.288574
 ---------------------------------------------------------------------
 Rotational constants (GHZ):           0.3385721           0.0682390           0.0635378
 Standard basis: 6-311++G(d,p) (5D, 7F)
 There are   749 symmetry adapted cartesian basis functions of A   symmetry.
 There are   722 symmetry adapted basis functions of A   symmetry.
   722 basis functions,  1147 primitive gaussians,   749 cartesian basis functions
   103 alpha electrons      103 beta electrons
       nuclear repulsion energy      2593.5373264801 Hartrees.
 NAtoms=   43 NActive=   43 NUniq=   43 SFac= 1.00D+00 NAtFMM=   60 NAOKFM=F Big=F
 Integral buffers will be    131072 words long.
 Raffenetti 2 integral format.
 Two-electron integral symmetry is turned on.
 R6APFD:  NTU= -4 IXU= 1 FactS= 1.050
 Nuclear repulsion after empirical dispersion term =     2593.4981905002 Hartrees.
 One-electron integrals computed using PRISM.
 NBasis=   722 RedAO= T EigKep=  1.04D-06  NBF=   722
 NBsUse=   716 1.00D-06 EigRej=  7.17D-07 NBFU=   716
 ExpMin= 3.60D-02 ExpMax= 1.06D+05 ExpMxC= 3.62D+03 IAcc=3 IRadAn=         5 AccDes= 0.00D+00
 Harris functional with IExCor= 1009 and IRadAn=       5 diagonalized for initial guess.
 HarFok:  IExCor= 1009 AccDes= 0.00D+00 IRadAn=         5 IDoV= 1 UseB2=F ITyADJ=14
 ICtDFT=  3500011 ScaDFX=  1.000000  1.000000  1.000000  1.000000
 FoFCou: FMM=F IPFlag=           0 FMFlag=      100000 FMFlg1=           0
         NFxFlg=           0 DoJE=T BraDBF=F KetDBF=T FulRan=T
         wScrn=  0.000000 ICntrl=       500 IOpCl=  0 I1Cent=   200000004 NGrid=           0
         NMat0=    1 NMatS0=      1 NMatT0=    0 NMatD0=    1 NMtDS0=    0 NMtDT0=    0
 Petite list used in FoFCou.
 Requested convergence on RMS density matrix=1.00D-08 within  32 cycles.
 Requested convergence on MAX density matrix=1.00D-06.
 Requested convergence on             energy=1.00D-06.
 No special actions if energy rises.
 SCF Done:  E(RM08HX) =  -1948.22059970     A.U. after   18 cycles
            NFock= 18  Conv=0.72D-08     -V/T= 2.0003
 QCSCF skips out because SCF is already converged.

 **********************************************************************

            Population analysis using the SCF Density.

 **********************************************************************

 Orbital symmetries:
       Occupied  (A) (A) (A) (A) (A) (A) (A) (A) (A) (A) (A) (A)
                 (A) (A) (A) (A) (A) (A) (A) (A) (A) (A) (A) (A)
                 (A) (A) (A) (A) (A) (A) (A) (A) (A) (A) (A) (A)
                 (A) (A) (A) (A) (A) (A) (A) (A) (A) (A) (A) (A)
                 (A) (A) (A) (A) (A) (A) (A) (A) (A) (A) (A) (A)
                 (A) (A) (A) (A) (A) (A) (A) (A) (A) (A) (A) (A)
                 (A) (A) (A) (A) (A) (A) (A) (A) (A) (A) (A) (A)
                 (A) (A) (A) (A) (A) (A) (A) (A) (A) (A) (A) (A)
                 (A) (A) (A) (A) (A) (A) (A)
       Virtual   (A) (A) (A) (A) (A) (A) (A) (A) (A) (A) (A) (A)
                 (A) (A) (A) (A) (A) (A) (A) (A) (A) (A) (A) (A)
                 (A) (A) (A) (A) (A) (A) (A) (A) (A) (A) (A) (A)
                 (A) (A) (A) (A) (A) (A) (A) (A) (A) (A) (A) (A)
                 (A) (A) (A) (A) (A) (A) (A) (A) (A) (A) (A) (A)
                 (A) (A) (A) (A) (A) (A) (A) (A) (A) (A) (A) (A)
                 (A) (A) (A) (A) (A) (A) (A) (A) (A) (A) (A) (A)
                 (A) (A) (A) (A) (A) (A) (A) (A) (A) (A) (A) (A)
                 (A) (A) (A) (A) (A) (A) (A) (A) (A) (A) (A) (A)
                 (A) (A) (A) (A) (A) (A) (A) (A) (A) (A) (A) (A)
                 (A) (A) (A) (A) (A) (A) (A) (A) (A) (A) (A) (A)
                 (A) (A) (A) (A) (A) (A) (A) (A) (A) (A) (A) (A)
                 (A) (A) (A) (A) (A) (A) (A) (A) (A) (A) (A) (A)
                 (A) (A) (A) (A) (A) (A) (A) (A) (A) (A) (A) (A)
                 (A) (A) (A) (A) (A) (A) (A) (A) (A) (A) (A) (A)
                 (A) (A) (A) (A) (A) (A) (A) (A) (A) (A) (A) (A)
                 (A) (A) (A) (A) (A) (A) (A) (A) (A) (A) (A) (A)
                 (A) (A) (A) (A) (A) (A) (A) (A) (A) (A) (A) (A)
                 (A) (A) (A) (A) (A) (A) (A) (A) (A) (A) (A) (A)
                 (A) (A) (A) (A) (A) (A) (A) (A) (A) (A) (A) (A)
                 (A) (A) (A) (A) (A) (A) (A) (A) (A) (A) (A) (A)
                 (A) (A) (A) (A) (A) (A) (A) (A) (A) (A) (A) (A)
                 (A) (A) (A) (A) (A) (A) (A) (A) (A) (A) (A) (A)
                 (A) (A) (A) (A) (A) (A) (A) (A) (A) (A) (A) (A)
                 (A) (A) (A) (A) (A) (A) (A) (A) (A) (A) (A) (A)
                 (A) (A) (A) (A) (A) (A) (A) (A) (A) (A) (A) (A)
                 (A) (A) (A) (A) (A) (A) (A) (A) (A) (A) (A) (A)
                 (A) (A) (A) (A) (A) (A) (A) (A) (A) (A) (A) (A)
                 (A) (A) (A) (A) (A) (A) (A) (A) (A) (A) (A) (A)
                 (A) (A) (A) (A) (A) (A) (A) (A) (A) (A) (A) (A)
                 (A) (A) (A) (A) (A) (A) (A) (A) (A) (A) (A) (A)
                 (A) (A) (A) (A) (A) (A) (A) (A) (A) (A) (A) (A)
                 (A) (A) (A) (A) (A) (A) (A) (A) (A) (A) (A) (A)
                 (A) (A) (A) (A) (A) (A) (A) (A) (A) (A) (A) (A)
                 (A) (A) (A) (A) (A) (A) (A) (A) (A) (A) (A) (A)
                 (A) (A) (A) (A) (A) (A) (A) (A) (A) (A) (A) (A)
                 (A) (A) (A) (A) (A) (A) (A) (A) (A) (A) (A) (A)
                 (A) (A) (A) (A) (A) (A) (A) (A) (A) (A) (A) (A)
                 (A) (A) (A) (A) (A) (A) (A) (A) (A) (A) (A) (A)
                 (A) (A) (A) (A) (A) (A) (A) (A) (A) (A) (A) (A)
                 (A) (A) (A) (A) (A) (A) (A) (A) (A) (A) (A) (A)
                 (A) (A) (A) (A) (A) (A) (A) (A) (A) (A) (A) (A)
                 (A) (A) (A) (A) (A) (A) (A) (A) (A) (A) (A) (A)
                 (A) (A) (A) (A) (A) (A) (A) (A) (A) (A) (A) (A)
                 (A) (A) (A) (A) (A) (A) (A) (A) (A) (A) (A) (A)
                 (A) (A) (A) (A) (A) (A) (A) (A) (A) (A) (A) (A)
                 (A) (A) (A) (A) (A) (A) (A) (A) (A) (A) (A) (A)
                 (A) (A) (A) (A) (A) (A) (A) (A) (A) (A) (A) (A)
                 (A) (A) (A) (A) (A) (A) (A) (A) (A) (A) (A) (A)
                 (A) (A) (A) (A) (A) (A) (A) (A) (A) (A) (A) (A)
                 (A) (A) (A) (A) (A) (A) (A) (A) (A) (A) (A) (A)
                 (A)
 The electronic state is 1-A.
 Alpha  occ. eigenvalues -- -102.66529 -90.08896 -19.61262 -19.60449 -19.60146
 Alpha  occ. eigenvalues --  -14.77057 -10.64176 -10.61559 -10.61312 -10.57617
 Alpha  occ. eigenvalues --  -10.57234 -10.56543 -10.55019 -10.54648 -10.54578
 Alpha  occ. eigenvalues --  -10.54345 -10.54340 -10.54107 -10.54089 -10.53967
 Alpha  occ. eigenvalues --  -10.53895 -10.53628 -10.53616 -10.53608 -10.53452
 Alpha  occ. eigenvalues --  -10.53345 -10.53305  -9.79323  -8.42606  -7.54629
 Alpha  occ. eigenvalues --   -7.53961  -7.53944  -6.37524  -6.37503  -6.37350
 Alpha  occ. eigenvalues --   -1.27224  -1.18432  -1.14165  -1.09624  -1.03167
 Alpha  occ. eigenvalues --   -1.01186  -0.99789  -0.96523  -0.95054  -0.91248
 Alpha  occ. eigenvalues --   -0.90662  -0.89560  -0.88583  -0.88249  -0.86107
 Alpha  occ. eigenvalues --   -0.80426  -0.79078  -0.76296  -0.75523  -0.75110
 Alpha  occ. eigenvalues --   -0.73333  -0.71821  -0.71389  -0.68187  -0.68022
 Alpha  occ. eigenvalues --   -0.65337  -0.64445  -0.63452  -0.61936  -0.59328
 Alpha  occ. eigenvalues --   -0.58758  -0.57939  -0.57246  -0.56825  -0.56393
 Alpha  occ. eigenvalues --   -0.55639  -0.55136  -0.54263  -0.53417  -0.53141
 Alpha  occ. eigenvalues --   -0.52824  -0.52419  -0.51176  -0.49949  -0.49214
 Alpha  occ. eigenvalues --   -0.48185  -0.47694  -0.47124  -0.46705  -0.46178
 Alpha  occ. eigenvalues --   -0.45707  -0.45391  -0.44249  -0.43123  -0.41955
 Alpha  occ. eigenvalues --   -0.41910  -0.40868  -0.39385  -0.39284  -0.39062
 Alpha  occ. eigenvalues --   -0.38689  -0.35145  -0.34496  -0.33929  -0.33556
 Alpha  occ. eigenvalues --   -0.32722  -0.30859  -0.29878
 Alpha virt. eigenvalues --   -0.07570  -0.03623  -0.03055  -0.02933  -0.02576
 Alpha virt. eigenvalues --   -0.02186  -0.01682  -0.01293  -0.01253  -0.01123
 Alpha virt. eigenvalues --   -0.00497  -0.00345  -0.00178   0.00519   0.00903
 Alpha virt. eigenvalues --    0.01124   0.01306   0.01899   0.02188   0.02597
 Alpha virt. eigenvalues --    0.02904   0.03228   0.03574   0.03713   0.03777
 Alpha virt. eigenvalues --    0.04156   0.04600   0.04976   0.05274   0.05915
 Alpha virt. eigenvalues --    0.06365   0.06660   0.07053   0.07175   0.07451
 Alpha virt. eigenvalues --    0.07850   0.07914   0.08263   0.09122   0.09219
 Alpha virt. eigenvalues --    0.09377   0.09576   0.09709   0.09898   0.10056
 Alpha virt. eigenvalues --    0.10198   0.10296   0.10672   0.10732   0.10886
 Alpha virt. eigenvalues --    0.11110   0.11323   0.11497   0.11785   0.12068
 Alpha virt. eigenvalues --    0.12205   0.12371   0.12619   0.12656   0.13053
 Alpha virt. eigenvalues --    0.13135   0.13294   0.13782   0.14085   0.14248
 Alpha virt. eigenvalues --    0.14472   0.14615   0.14981   0.15301   0.15568
 Alpha virt. eigenvalues --    0.15851   0.15976   0.16241   0.16499   0.16602
 Alpha virt. eigenvalues --    0.16791   0.16834   0.16996   0.17277   0.17660
 Alpha virt. eigenvalues --    0.17819   0.17928   0.18136   0.18564   0.18938
 Alpha virt. eigenvalues --    0.19351   0.19426   0.19790   0.20042   0.20293
 Alpha virt. eigenvalues --    0.20486   0.20655   0.20978   0.21535   0.21626
 Alpha virt. eigenvalues --    0.21871   0.22217   0.22543   0.22723   0.22900
 Alpha virt. eigenvalues --    0.23165   0.23454   0.23685   0.24036   0.24394
 Alpha virt. eigenvalues --    0.24716   0.24964   0.25297   0.25497   0.26221
 Alpha virt. eigenvalues --    0.26569   0.26750   0.26964   0.27282   0.27470
 Alpha virt. eigenvalues --    0.27829   0.28349   0.28760   0.29206   0.29493
 Alpha virt. eigenvalues --    0.29882   0.30119   0.30338   0.30534   0.30742
 Alpha virt. eigenvalues --    0.31369   0.31581   0.31647   0.32154   0.32737
 Alpha virt. eigenvalues --    0.32924   0.33178   0.33265   0.33657   0.34321
 Alpha virt. eigenvalues --    0.34883   0.35216   0.35460   0.35822   0.36072
 Alpha virt. eigenvalues --    0.36205   0.36464   0.36786   0.37055   0.37594
 Alpha virt. eigenvalues --    0.37813   0.38132   0.38498   0.38714   0.39010
 Alpha virt. eigenvalues --    0.39471   0.39591   0.39834   0.40869   0.41234
 Alpha virt. eigenvalues --    0.41482   0.41906   0.42148   0.42246   0.43641
 Alpha virt. eigenvalues --    0.44254   0.44994   0.46524   0.46884   0.47648
 Alpha virt. eigenvalues --    0.48132   0.49165   0.49215   0.50495   0.50610
 Alpha virt. eigenvalues --    0.51348   0.51468   0.52527   0.53296   0.54272
 Alpha virt. eigenvalues --    0.54709   0.55857   0.56320   0.56477   0.57503
 Alpha virt. eigenvalues --    0.57899   0.58066   0.58688   0.58822   0.58986
 Alpha virt. eigenvalues --    0.59638   0.59837   0.60112   0.60330   0.60632
 Alpha virt. eigenvalues --    0.60907   0.61389   0.61732   0.62035   0.62487
 Alpha virt. eigenvalues --    0.63301   0.63943   0.64196   0.64346   0.64986
 Alpha virt. eigenvalues --    0.65131   0.65998   0.66467   0.66721   0.67017
 Alpha virt. eigenvalues --    0.67588   0.67903   0.68864   0.69102   0.69919
 Alpha virt. eigenvalues --    0.71068   0.71363   0.71924   0.72081   0.72850
 Alpha virt. eigenvalues --    0.73091   0.73401   0.73866   0.74118   0.74764
 Alpha virt. eigenvalues --    0.75115   0.75971   0.76311   0.76603   0.77090
 Alpha virt. eigenvalues --    0.77939   0.78462   0.78958   0.79908   0.80104
 Alpha virt. eigenvalues --    0.80488   0.80802   0.81818   0.82646   0.83032
 Alpha virt. eigenvalues --    0.83372   0.84309   0.84782   0.85145   0.85778
 Alpha virt. eigenvalues --    0.86484   0.86920   0.87168   0.87354   0.87411
 Alpha virt. eigenvalues --    0.87871   0.88622   0.88794   0.89099   0.89550
 Alpha virt. eigenvalues --    0.90053   0.90833   0.91082   0.91481   0.92072
 Alpha virt. eigenvalues --    0.92858   0.93372   0.93956   0.94976   0.95167
 Alpha virt. eigenvalues --    0.95381   0.96247   0.96704   0.97706   0.98178
 Alpha virt. eigenvalues --    0.98418   0.99099   0.99693   1.00416   1.01122
 Alpha virt. eigenvalues --    1.01325   1.01664   1.02582   1.02988   1.03738
 Alpha virt. eigenvalues --    1.04635   1.05124   1.05447   1.05976   1.06589
 Alpha virt. eigenvalues --    1.06891   1.07765   1.08430   1.08850   1.09064
 Alpha virt. eigenvalues --    1.09671   1.10030   1.10849   1.11659   1.12013
 Alpha virt. eigenvalues --    1.13965   1.14229   1.14686   1.15780   1.16396
 Alpha virt. eigenvalues --    1.16749   1.17610   1.18255   1.18612   1.19325
 Alpha virt. eigenvalues --    1.19984   1.20598   1.21481   1.22463   1.23995
 Alpha virt. eigenvalues --    1.24590   1.25665   1.26734   1.28091   1.28240
 Alpha virt. eigenvalues --    1.29289   1.30337   1.30473   1.31225   1.31264
 Alpha virt. eigenvalues --    1.32595   1.32706   1.35019   1.35164   1.36119
 Alpha virt. eigenvalues --    1.37359   1.37445   1.39011   1.42734   1.43108
 Alpha virt. eigenvalues --    1.47172   1.49189   1.50868   1.51195   1.52951
 Alpha virt. eigenvalues --    1.53261   1.53528   1.55353   1.55794   1.56549
 Alpha virt. eigenvalues --    1.57083   1.57564   1.58007   1.58700   1.59553
 Alpha virt. eigenvalues --    1.60692   1.60870   1.62142   1.63233   1.63773
 Alpha virt. eigenvalues --    1.63972   1.64608   1.64939   1.65288   1.66187
 Alpha virt. eigenvalues --    1.67409   1.68865   1.70302   1.70383   1.71638
 Alpha virt. eigenvalues --    1.71669   1.72057   1.72540   1.73467   1.74471
 Alpha virt. eigenvalues --    1.75962   1.76181   1.78218   1.79028   1.79092
 Alpha virt. eigenvalues --    1.80427   1.81420   1.83199   1.84305   1.85172
 Alpha virt. eigenvalues --    1.85581   1.86362   1.86558   1.86814   1.88658
 Alpha virt. eigenvalues --    1.89078   1.89631   1.90385   1.90633   1.92344
 Alpha virt. eigenvalues --    1.92877   1.93429   1.94178   1.95243   1.95652
 Alpha virt. eigenvalues --    1.96431   1.97712   1.98182   1.98780   1.99028
 Alpha virt. eigenvalues --    1.99790   2.00296   2.00647   2.01439   2.01896
 Alpha virt. eigenvalues --    2.02324   2.03373   2.03419   2.04833   2.05275
 Alpha virt. eigenvalues --    2.05923   2.06787   2.08394   2.09505   2.10215
 Alpha virt. eigenvalues --    2.11731   2.12024   2.13125   2.13997   2.15145
 Alpha virt. eigenvalues --    2.15939   2.17467   2.18500   2.18793   2.19856
 Alpha virt. eigenvalues --    2.20139   2.23436   2.23683   2.24089   2.25955
 Alpha virt. eigenvalues --    2.28077   2.30526   2.31285   2.33106   2.34357
 Alpha virt. eigenvalues --    2.34947   2.35994   2.36624   2.37318   2.37826
 Alpha virt. eigenvalues --    2.39813   2.39983   2.40491   2.40968   2.41303
 Alpha virt. eigenvalues --    2.42858   2.43457   2.45466   2.46483   2.47691
 Alpha virt. eigenvalues --    2.47869   2.48928   2.51014   2.53075   2.53416
 Alpha virt. eigenvalues --    2.54980   2.57428   2.57645   2.60596   2.60848
 Alpha virt. eigenvalues --    2.62982   2.65706   2.67258   2.67892   2.70964
 Alpha virt. eigenvalues --    2.73942   2.75368   2.75929   2.76580   2.77929
 Alpha virt. eigenvalues --    2.78393   2.78598   2.79806   2.81213   2.82800
 Alpha virt. eigenvalues --    2.83780   2.85680   2.86663   2.87454   2.88462
 Alpha virt. eigenvalues --    2.89828   2.91211   2.91835   2.92214   2.92747
 Alpha virt. eigenvalues --    2.93277   2.94304   2.94722   2.95126   2.95726
 Alpha virt. eigenvalues --    2.96037   2.96232   2.96656   2.97441   2.97662
 Alpha virt. eigenvalues --    2.98433   2.99060   3.00197   3.00642   3.01001
 Alpha virt. eigenvalues --    3.01740   3.02331   3.03149   3.03785   3.04529
 Alpha virt. eigenvalues --    3.05255   3.06436   3.06981   3.07275   3.08187
 Alpha virt. eigenvalues --    3.11241   3.11786   3.12257   3.13383   3.15979
 Alpha virt. eigenvalues --    3.16574   3.17139   3.17466   3.18513   3.19927
 Alpha virt. eigenvalues --    3.21300   3.24987   3.25343   3.25653   3.25953
 Alpha virt. eigenvalues --    3.28281   3.29818   3.33879   3.34160   3.35770
 Alpha virt. eigenvalues --    3.39582   3.41236   3.42416   3.43383   3.46213
 Alpha virt. eigenvalues --    3.48158   3.50186   3.52560   3.52692   3.53962
 Alpha virt. eigenvalues --    3.60000   3.60682   3.65401   3.67544   3.69560
 Alpha virt. eigenvalues --    3.70237   3.71083   3.72266   3.73158   3.73629
 Alpha virt. eigenvalues --    3.74589   3.78018   3.81844   3.85907   3.88875
 Alpha virt. eigenvalues --    3.90817   3.94761   3.98968   4.04484   4.06208
 Alpha virt. eigenvalues --    4.17684   4.27538   4.27556   4.29791   4.30924
 Alpha virt. eigenvalues --    4.32486   4.32556   4.35750   4.36817   4.39874
 Alpha virt. eigenvalues --    4.42672   4.43596   4.55671   4.64123   4.69585
 Alpha virt. eigenvalues --    4.92262   4.92709   4.93801   5.19439   5.21726
 Alpha virt. eigenvalues --    5.22992   5.24988   5.26589   5.33788   5.35103
 Alpha virt. eigenvalues --    5.49814   5.51609   5.92037   8.44289  10.01320
 Alpha virt. eigenvalues --   17.60615  17.63364  17.84258  23.71637  23.79405
 Alpha virt. eigenvalues --   23.85221  23.93215  24.03827  24.05706  24.06245
 Alpha virt. eigenvalues --   24.09961  24.10993  24.12150  24.22090  24.22327
 Alpha virt. eigenvalues --   24.23085  24.28889  24.29186  24.29452  24.29917
 Alpha virt. eigenvalues --   24.39548  24.39883  24.43819  24.45244  26.04911
 Alpha virt. eigenvalues --   26.48582  26.92058  35.85875  49.94733  49.98962
 Alpha virt. eigenvalues --   50.04924 189.25673 215.61529
          Condensed to atoms (all electrons):
               1          2          3          4          5          6
     1  S   26.269427  -0.000097   0.226745  -0.002771  -2.593875   0.346044
     2  Cl  -0.000097  18.292945  -0.093700   0.409563   0.001814  -0.008734
     3  C    0.226745  -0.093700  47.028644  -2.166894  -0.461225   0.054415
     4  C   -0.002771   0.409563  -2.166894  36.206282   0.025954  -0.090842
     5  N   -2.593875   0.001814  -0.461225   0.025954  10.940593  -0.214257
     6  H    0.346044  -0.008734   0.054415  -0.090842  -0.214257   0.684413
     7  C   -5.289278   0.000624  -2.144801   0.028460  -0.961053  -0.159353
     8  O    0.100661   0.004383   0.170031  -0.004253  -0.066068   0.087103
     9  C    0.594866   0.021649   6.437249  -0.271237  -2.543491   0.695611
    10  O    1.215553  -0.000006   0.207970  -0.001438  -0.367066   0.178715
    11  C    0.026396  -0.336076  -2.149953  -0.859601   1.325654   0.096250
    12  O   -1.088577   0.000080   0.060064   0.002252   0.166122  -0.212665
    13  C    0.390487  -0.051508 -13.286831   0.253315  -0.910788   0.369700
    14  H   -0.014219  -0.000679  -0.062394  -0.008200  -0.032516   0.003807
    15  C   -0.043627  -1.409251  -9.935762  -9.092932   0.293349  -0.114898
    16  H    0.000370   0.020275   0.720482   0.067425   0.058867  -0.013672
    17  C    0.000039  -0.532676  -1.293130   2.318585  -0.011819   0.023980
    18  C   -2.061437   0.005257  -7.450638   0.121090   0.683247  -0.564732
    19  H    0.093736  -0.000032  -0.204162  -0.006870  -0.004035   0.019747
    20  C    0.314456  -0.015544  -5.868857  -0.721887  -0.336735   0.321204
    21  H    0.002790  -0.000156   0.000385  -0.015378  -0.001168   0.006191
    22  C   -0.004881   0.623230  -0.009165  -6.783409  -0.008350  -0.050236
    23  H    0.000014  -0.040840  -0.092372  -0.211581  -0.004868   0.001441
    24  C    2.299340  -0.000319   2.467317  -0.017354  -1.180975   0.227567
    25  H   -0.584441   0.000198   0.000803   0.000929   0.155280  -0.076305
    26  C   -1.856427   0.001740   0.976453   0.181428   1.028591  -0.638625
    27  H   -0.013784   0.000011   0.187526   0.003526   0.004582  -0.009519
    28  C   -0.000300  -0.684251   0.048175  -6.023049  -0.001219   0.007652
    29  H   -0.000005   0.059402   0.001239  -0.292097   0.000032   0.000035
    30  C   -0.000309   0.975586  -0.150807  -7.560641   0.000894  -0.009361
    31  H   -0.000001   0.029236  -0.002708  -0.103557   0.000112  -0.000102
    32  C    1.948931  -0.000530   0.118470  -0.009522  -0.329728   0.255966
    33  H    0.069827  -0.000033  -0.004511  -0.000470  -0.016380   0.007305
    34  C   -2.459904   0.000154  -1.128947   0.004125   2.297629  -0.277887
    35  H   -0.135139   0.000002   0.019078   0.000492   0.023142  -0.010741
    36  C   -1.218979   0.000010  -0.018452  -0.001267   0.170483  -0.066149
    37  H    0.026924  -0.000000  -0.001633  -0.000054  -0.005741   0.003123
    38  C   -0.395277  -0.000005   0.013911   0.000543   0.089370  -0.016700
    39  H   -0.047026   0.000002  -0.000363   0.000061   0.003296  -0.002535
    40  C   -0.000061  -0.628041   0.016058  -0.391224  -0.000459  -0.000065
    41  H   -0.000001  -0.036416   0.000736   0.181481  -0.000009   0.000002
    42  C    0.097722  -0.854821  -8.220943  -1.274864  -0.169979  -0.256792
    43  H   -0.006398   0.449008  -0.529822   0.715577   0.007863  -0.040771
               7          8          9         10         11         12
     1  S   -5.289278   0.100661   0.594866   1.215553   0.026396  -1.088577
     2  Cl   0.000624   0.004383   0.021649  -0.000006  -0.336076   0.000080
     3  C   -2.144801   0.170031   6.437249   0.207970  -2.149953   0.060064
     4  C    0.028460  -0.004253  -0.271237  -0.001438  -0.859601   0.002252
     5  N   -0.961053  -0.066068  -2.543491  -0.367066   1.325654   0.166122
     6  H   -0.159353   0.087103   0.695611   0.178715   0.096250  -0.212665
     7  C   53.787515  -0.036517  -1.373179  -0.651990   2.942035   0.508797
     8  O   -0.036517   7.770037   0.025107   0.007278   0.459325  -0.007195
     9  C   -1.373179   0.025107  50.863148   1.305498  -3.158464  -0.820142
    10  O   -0.651990   0.007278   1.305498   9.205181  -0.212934  -0.711592
    11  C    2.942035   0.459325  -3.158464  -0.212934  43.725766  -0.396626
    12  O    0.508797  -0.007195  -0.820142  -0.711592  -0.396626   9.366788
    13  C   -1.257476  -0.032003  -6.606010   0.055149 -11.467242   0.047717
    14  H    0.000412   0.003043   0.038144   0.000246  -0.417823   0.001168
    15  C    0.838197  -0.426404  -4.391885  -0.064152   9.976494   0.002338
    16  H   -0.006242  -0.014665  -0.172259   0.000723   1.304599  -0.002334
    17  C    0.009094  -0.031825  -0.406778  -0.000033  -1.643451  -0.000734
    18  C   -0.527485  -0.084192 -13.828286  -0.968003 -10.182862   1.104877
    19  H   -0.289645   0.008242   0.553389   0.006455  -0.150304   0.004143
    20  C    0.126174   0.007816   7.613356   0.066371  -0.771841  -0.036925
    21  H    0.014924   0.000147   0.219270   0.001055   0.048845  -0.000568
    22  C    0.003974   0.000589   0.436638  -0.000198  -2.831645   0.000806
    23  H    0.000132   0.000745   0.026198  -0.000027  -0.291136   0.000056
    24  C  -14.903084  -0.023111   0.730518   1.608366  -2.963212  -1.433793
    25  H    0.227404  -0.013924  -0.213423  -0.067536  -0.050194   0.091097
    26  C    0.522112  -0.075658 -28.015111  -0.645835  -0.655926   0.228616
    27  H   -0.085229   0.000048  -0.339998  -0.005307  -0.031778   0.002394
    28  C    0.000128  -0.015467  -0.006237   0.000001   0.505690  -0.000016
    29  H   -0.000004  -0.000179   0.000408  -0.000000   0.018291   0.000000
    30  C    0.000072   0.002439   0.027927  -0.000005  -0.433917   0.000026
    31  H   -0.000008   0.000024  -0.000993   0.000000   0.024290   0.000000
    32  C   -4.543128   0.016133   1.937341   0.275000   0.336779  -0.609830
    33  H    0.050615   0.000643   0.054341   0.004183   0.021619  -0.012081
    34  C  -10.714530   0.007971  -2.769991  -1.959651   0.762877   1.395118
    35  H   -0.093170  -0.000798  -0.127245  -0.036939   0.001403  -0.005856
    36  C   -7.704839  -0.003580   1.046088  -0.248865  -0.072629   0.267507
    37  H   -0.068778   0.000045   0.077918   0.005391   0.003464  -0.002830
    38  C   -2.725944  -0.000488  -1.093919  -0.084882  -0.230778   0.091057
    39  H    0.055987  -0.000061  -0.049658  -0.003767  -0.005692   0.004675
    40  C    0.000145  -0.001818  -0.000118  -0.000001  -0.307917  -0.000000
    41  H    0.000002  -0.000019   0.000027  -0.000000  -0.002281   0.000000
    42  C    0.379087   0.289698  -1.559078  -0.018574 -15.810368  -0.002794
    43  H    0.019450   0.008128   0.025206  -0.001318  -0.373024   0.003497
              13         14         15         16         17         18
     1  S    0.390487  -0.014219  -0.043627   0.000370   0.000039  -2.061437
     2  Cl  -0.051508  -0.000679  -1.409251   0.020275  -0.532676   0.005257
     3  C  -13.286831  -0.062394  -9.935762   0.720482  -1.293130  -7.450638
     4  C    0.253315  -0.008200  -9.092932   0.067425   2.318585   0.121090
     5  N   -0.910788  -0.032516   0.293349   0.058867  -0.011819   0.683247
     6  H    0.369700   0.003807  -0.114898  -0.013672   0.023980  -0.564732
     7  C   -1.257476   0.000412   0.838197  -0.006242   0.009094  -0.527485
     8  O   -0.032003   0.003043  -0.426404  -0.014665  -0.031825  -0.084192
     9  C   -6.606010   0.038144  -4.391885  -0.172259  -0.406778 -13.828286
    10  O    0.055149   0.000246  -0.064152   0.000723  -0.000033  -0.968003
    11  C  -11.467242  -0.417823   9.976494   1.304599  -1.643451 -10.182862
    12  O    0.047717   0.001168   0.002338  -0.002334  -0.000734   1.104877
    13  C   38.649159   1.017006  -6.536897  -0.803962  -0.077832   9.986110
    14  H    1.017006   0.612679  -0.273279  -0.138716  -0.020522   0.421091
    15  C   -6.536897  -0.273279  36.586286   1.205185  -5.724754  -1.748381
    16  H   -0.803962  -0.138716   1.205185   1.240404   0.166640  -0.290764
    17  C   -0.077832  -0.020522  -5.724754   0.166640  43.259036  -0.055656
    18  C    9.986110   0.421091  -1.748381  -0.290764  -0.055656  36.272820
    19  H    0.206076   0.010334  -0.058840  -0.008132  -0.000824   0.975712
    20  C   -2.786137  -0.421595  -0.985058  -0.227963  -0.042906  -3.235169
    21  H   -0.202495  -0.037290  -0.012617   0.006287  -0.003064  -0.109595
    22  C   -0.384683   0.076200  -3.420113  -0.671241 -12.886103   0.097722
    23  H    0.108804   0.022046  -0.287506  -0.239873  -0.321648   0.021934
    24  C    1.433929  -0.037700  -0.768370   0.007509  -0.006966  -1.585867
    25  H   -0.010296   0.000017  -0.007985   0.000853  -0.002345   0.220571
    26  C    4.859735   0.035080   0.535584   0.089888   0.002301  -3.070273
    27  H    0.002064   0.006657  -0.001393   0.001530   0.000316  -0.113221
    28  C    0.156954   0.007423  -0.014341  -0.100763  -1.221212   0.001413
    29  H    0.001957  -0.000159  -0.023266   0.002385  -0.270890   0.000089
    30  C   -0.205422   0.007946  -2.257821   0.004878   1.914886   0.004457
    31  H   -0.001991  -0.002104  -0.051288   0.029170   0.348932  -0.000348
    32  C   -0.162347  -0.003891  -0.021562   0.003259   0.002428  -1.607945
    33  H   -0.010924  -0.000136   0.002720   0.000066   0.000172  -0.047672
    34  C   -0.467537   0.038718   0.240475  -0.005643  -0.000598   3.934613
    35  H   -0.005631  -0.000821   0.002824   0.000374   0.000035  -0.001416
    36  C   -0.078324   0.000741  -0.005403  -0.000030  -0.000408   0.009969
    37  H   -0.006189   0.000027   0.000017  -0.000003  -0.000003  -0.024249
    38  C    0.185464   0.001808  -0.023142  -0.000833   0.000033   0.788095
    39  H    0.005318   0.000087  -0.000168  -0.000024  -0.000008   0.032074
    40  C   -0.036222   0.005007   0.018759  -0.091934  -5.001018  -0.000593
    41  H   -0.000320   0.000388   0.011490  -0.005703  -0.171456  -0.000001
    42  C   -4.312931  -0.009241   5.412265  -1.136546 -12.167431  -0.136763
    43  H   -0.171652  -0.003081  -0.756255   0.015745  -0.195794   0.053414
              19         20         21         22         23         24
     1  S    0.093736   0.314456   0.002790  -0.004881   0.000014   2.299340
     2  Cl  -0.000032  -0.015544  -0.000156   0.623230  -0.040840  -0.000319
     3  C   -0.204162  -5.868857   0.000385  -0.009165  -0.092372   2.467317
     4  C   -0.006870  -0.721887  -0.015378  -6.783409  -0.211581  -0.017354
     5  N   -0.004035  -0.336735  -0.001168  -0.008350  -0.004868  -1.180975
     6  H    0.019747   0.321204   0.006191  -0.050236   0.001441   0.227567
     7  C   -0.289645   0.126174   0.014924   0.003974   0.000132 -14.903084
     8  O    0.008242   0.007816   0.000147   0.000589   0.000745  -0.023111
     9  C    0.553389   7.613356   0.219270   0.436638   0.026198   0.730518
    10  O    0.006455   0.066371   0.001055  -0.000198  -0.000027   1.608366
    11  C   -0.150304  -0.771841   0.048845  -2.831645  -0.291136  -2.963212
    12  O    0.004143  -0.036925  -0.000568   0.000806   0.000056  -1.433793
    13  C    0.206076  -2.786137  -0.202495  -0.384683   0.108804   1.433929
    14  H    0.010334  -0.421595  -0.037290   0.076200   0.022046  -0.037700
    15  C   -0.058840  -0.985058  -0.012617  -3.420113  -0.287506  -0.768370
    16  H   -0.008132  -0.227963   0.006287  -0.671241  -0.239873   0.007509
    17  C   -0.000824  -0.042906  -0.003064 -12.886103  -0.321648  -0.006966
    18  C    0.975712  -3.235169  -0.109595   0.097722   0.021934  -1.585867
    19  H    0.653333  -0.103421   0.000196   0.000709   0.000649  -0.269027
    20  C   -0.103421  20.958878   0.745441  -0.082582   0.040366   1.010202
    21  H    0.000196   0.745441   0.464207  -0.001631  -0.000179   0.029015
    22  C    0.000709  -0.082582  -0.001631  22.500908   1.007832  -0.003542
    23  H    0.000649   0.040366  -0.000179   1.007832   0.657617   0.000069
    24  C   -0.269027   1.010202   0.029015  -0.003542   0.000069  68.318730
    25  H   -0.008500  -0.019850  -0.000281   0.001736  -0.000032   0.967409
    26  C   -1.044246  -6.583184  -0.346033   0.013129  -0.007264  -0.587916
    27  H   -0.027193  -0.355842  -0.031947  -0.000605  -0.000242  -0.075569
    28  C    0.000060   0.022135  -0.000190   1.204455   0.191207  -0.000042
    29  H    0.000000   0.000012  -0.000005   0.137089   0.001311   0.000005
    30  C   -0.000100  -0.054994  -0.001050   0.265087  -0.258472  -0.000212
    31  H   -0.000018  -0.004085  -0.000065  -0.236646  -0.059212   0.000003
    32  C    0.025708   0.116110   0.002382  -0.001948  -0.000081  -4.496732
    33  H    0.001251   0.003691   0.000116  -0.000058  -0.000002  -0.480686
    34  C    0.421861  -1.166749  -0.039068   0.002391  -0.000035 -47.537397
    35  H   -0.048493   0.015084   0.000443  -0.000025  -0.000014   0.051875
    36  C    0.063918  -0.005545  -0.001525   0.000427  -0.000010   0.385769
    37  H    0.003020   0.003752   0.000188   0.000006   0.000000  -0.047482
    38  C    0.011969  -0.058142  -0.002472  -0.000105   0.000022   2.967050
    39  H   -0.001409  -0.003797  -0.000164   0.000003   0.000000   0.104687
    40  C    0.000005   0.002409   0.000066   0.006618   0.178306  -0.000092
    41  H    0.000000   0.000089  -0.000003  -0.006724   0.011753  -0.000002
    42  C   -0.002396  -0.696840  -0.000702   7.315017   0.388815  -0.269692
    43  H   -0.000556  -0.118684  -0.001090   0.440187  -0.017832  -0.020107
              25         26         27         28         29         30
     1  S   -0.584441  -1.856427  -0.013784  -0.000300  -0.000005  -0.000309
     2  Cl   0.000198   0.001740   0.000011  -0.684251   0.059402   0.975586
     3  C    0.000803   0.976453   0.187526   0.048175   0.001239  -0.150807
     4  C    0.000929   0.181428   0.003526  -6.023049  -0.292097  -7.560641
     5  N    0.155280   1.028591   0.004582  -0.001219   0.000032   0.000894
     6  H   -0.076305  -0.638625  -0.009519   0.007652   0.000035  -0.009361
     7  C    0.227404   0.522112  -0.085229   0.000128  -0.000004   0.000072
     8  O   -0.013924  -0.075658   0.000048  -0.015467  -0.000179   0.002439
     9  C   -0.213423 -28.015111  -0.339998  -0.006237   0.000408   0.027927
    10  O   -0.067536  -0.645835  -0.005307   0.000001  -0.000000  -0.000005
    11  C   -0.050194  -0.655926  -0.031778   0.505690   0.018291  -0.433917
    12  O    0.091097   0.228616   0.002394  -0.000016   0.000000   0.000026
    13  C   -0.010296   4.859735   0.002064   0.156954   0.001957  -0.205422
    14  H    0.000017   0.035080   0.006657   0.007423  -0.000159   0.007946
    15  C   -0.007985   0.535584  -0.001393  -0.014341  -0.023266  -2.257821
    16  H    0.000853   0.089888   0.001530  -0.100763   0.002385   0.004878
    17  C   -0.002345   0.002301   0.000316  -1.221212  -0.270890   1.914886
    18  C    0.220571  -3.070273  -0.113221   0.001413   0.000089   0.004457
    19  H   -0.008500  -1.044246  -0.027193   0.000060   0.000000  -0.000100
    20  C   -0.019850  -6.583184  -0.355842   0.022135   0.000012  -0.054994
    21  H   -0.000281  -0.346033  -0.031947  -0.000190  -0.000005  -0.001050
    22  C    0.001736   0.013129  -0.000605   1.204455   0.137089   0.265087
    23  H   -0.000032  -0.007264  -0.000242   0.191207   0.001311  -0.258472
    24  C    0.967409  -0.587916  -0.075569  -0.000042   0.000005  -0.000212
    25  H    0.571807   0.130310   0.000990   0.000036   0.000005   0.000027
    26  C    0.130310  39.797011   0.988522   0.000825   0.000051  -0.000297
    27  H    0.000990   0.988522   0.490827   0.000023   0.000001  -0.000154
    28  C    0.000036   0.000825   0.000023  16.872712   0.756190  -2.596478
    29  H    0.000005   0.000051   0.000001   0.756190   0.454497   0.039972
    30  C    0.000027  -0.000297  -0.000154  -2.596478   0.039972  15.670088
    31  H   -0.000001   0.000289   0.000011  -0.036224   0.004343   0.676166
    32  C   -0.779637  -0.906601  -0.004880   0.000113  -0.000003  -0.000097
    33  H   -0.043973  -0.026199  -0.000325  -0.000001  -0.000000  -0.000000
[...]
 0008,0.00000135,0.00000775,0.00004117,-0.00020299,0.00007666,0.0000551
 5,-0.00000846,0.00000852,0.00000710,-0.00043215,-0.00004735,-0.0000138
 0,-0.00007986,-0.02189010,0.01259560,-0.00378445,-0.00033727,-0.001907
 68,-0.00055094,0.00435669,0.00255050,0.00067916,0.00063927,-0.00045965
 ,0.00035186,0.01301500,-0.00831019,0.00973082,-0.00102482,-0.00175057,
 -0.00071691,-0.07431126,0.05702577,-0.08809707,0.07844974,-0.06452665,
 0.08743400,-0.00008072,0.00029596,0.00009234,-0.00006458,0.00654296,-0
 .00124197,-0.00020200,-0.00007094,-0.00005361,-0.01372808,-0.00925467,
 0.02846710,-0.00004742,-0.00009026,-0.00013229,0.00007267,0.00000932,0
 .00003640,0.00005437,-0.00007523,-0.00010457,-0.00025798,0.00015594,-0
 .00034630,0.00002878,-0.00004601,0.00015449,0.00002805,-0.00006869,-0.
 00001215,0.00098497,-0.00004052,0.00059285,0.00002566,-0.00006068,-0.0
 0002076,0.00000222,0.00005460,-0.00005189,0.00001952,0.00000732,-0.000
 02974,-0.00029285,0.00071078,-0.00081580,-0.00003817,-0.00017281,-0.00
 035838,0.03028568,-0.00743889,-0.02537463,-0.00001207,0.00000353,-0.00
 000320,-0.00000852,-0.00000047,0.00000249,-0.00003408,-0.00001463,-0.0
 0001864,-0.00000928,-0.00000239,0.00000921,-0.03418031,0.04203552,-0.0
 0209541,0.00073242,0.00566821,0.00034750,-0.00016799,-0.00001961,0.000
 06018,0.00000197,-0.00000524,0.00000534,-0.00001493,-0.00000016,0.0000
 2366,-0.00000428,-0.00000356,0.,-0.10427992,0.04122167,0.00150074,0.00
 383141,-0.01261214,0.01774009,-0.19813572,0.03998792,0.14213799,0.0037
 4318,0.00048219,-0.00223405,0.00032534,-0.00003043,0.00015203,0.000093
 25,-0.00003825,0.00005685,0.00003379,-0.00003292,0.00001300,-0.0000024
 9,-0.00000321,-0.00000201,0.00001568,0.00012391,0.00000077,-0.00007210
 ,-0.00001672,-0.00000556,0.00002195,0.00027616,0.00023552,-0.00005987,
 -0.00022405,-0.00026197,0.48658737,0.00014967,-0.00035775,-0.00015449,
 0.00342801,0.00132118,0.00121363,0.00015808,-0.00000855,0.00000437,-0.
 00981507,-0.00533379,0.01137005,0.00004899,0.00016242,0.00020581,-0.00
 010322,-0.00002479,-0.00006469,0.00005889,0.00019673,-0.00023329,0.000
 32889,-0.00045573,0.00037198,-0.00005487,0.00008896,-0.00020938,-0.000
 04773,0.00008921,0.00003020,-0.00124791,0.00072162,-0.00024459,-0.0000
 4620,0.00007469,0.00005331,0.00002154,-0.00005430,0.00002655,-0.000025
 06,0.00000211,0.00005682,0.00062328,-0.00044532,0.00016684,-0.00010611
 ,-0.00017095,-0.00002257,0.02254912,-0.02931050,0.01792941,0.00002679,
 -0.00002025,0.00001716,0.00001398,-0.00000196,-0.00000577,0.00004365,0
 .00001414,0.00003308,0.00001093,-0.00000109,-0.00001052,0.01715367,0.0
 0616070,-0.02413767,0.00605751,-0.00028114,0.00272686,-0.00020897,0.00
 010826,-0.00004239,-0.00002577,-0.00000627,-0.00001912,0.00001820,0.00
 002473,-0.00001726,0.00000674,-0.00000565,0.00000097,0.00588349,-0.169
 19292,0.14579298,0.00074687,0.00757773,-0.00646911,0.07282817,-0.10929
 483,-0.03422649,-0.01270424,0.00731114,0.01242300,0.00016784,0.0000795
 9,0.00006259,0.00013547,-0.00011838,0.00012841,0.00004066,-0.00005257,
 0.00028199,-0.00002393,-0.00000868,-0.00001109,-0.00022660,0.00011930,
 -0.00008397,0.00004150,-0.00001887,0.00001617,0.00038226,-0.00012573,0
 .00025291,0.00034272,0.00005092,0.00000740,-0.25266479,0.49576161,0.00
 001627,-0.00002945,0.00008724,0.00227434,-0.00352543,0.00495015,0.0000
 7840,0.00007709,0.00005656,0.02694746,0.01392143,-0.06188565,0.0000125
 5,0.00000866,-0.00000509,0.00000895,0.00000092,0.00001483,-0.00010800,
 -0.00013514,0.00036997,-0.00000475,0.00026577,0.00004753,-0.00001409,0
 .00000389,-0.00001433,0.00000002,0.00001368,-0.00003254,0.00000627,-0.
 00066078,-0.00038265,-0.00000112,0.00002256,-0.00006212,-0.00001535,-0
 .00001207,0.00005233,0.00000498,-0.00000593,-0.00002847,0.00024467,-0.
 00040301,0.00084966,0.00015513,0.00030467,0.00056451,-0.06828386,0.060
 48751,0.01573609,-0.00000159,-0.00001430,-0.00000506,0.00000091,-0.000
 00352,-0.00000016,-0.00000385,0.00000248,-0.00001368,0.00000259,-0.000
 00438,0.00000039,0.03332407,-0.06090021,0.04619494,0.00059564,0.003444
 32,0.00265464,0.00043302,-0.00014438,-0.00020174,-0.00001328,0.0000324
 9,0.00001053,0.00000355,0.00000634,-0.00000029,-0.00000399,0.00000027,
 -0.00000224,0.05390959,0.09674041,-0.27005593,-0.00129415,0.01195977,-
 0.01197039,0.09126633,0.01327576,-0.22065030,0.01821374,-0.00663393,-0
 .01273742,-0.00072122,0.00016221,-0.00018911,-0.00010405,0.00008912,-0
 .00012184,-0.00010646,-0.00003340,-0.00016045,0.00000642,-0.00003728,-
 0.00002572,0.00003790,-0.00011594,0.00001872,0.00009446,0.00001954,0.0
 0000318,0.00027766,0.00014248,-0.00029257,-0.00026984,-0.00003623,0.00
 034521,-0.14041074,-0.15994828,0.56771035,-0.00000577,0.00005560,0.000
 02708,0.00002450,-0.00020416,0.00018058,-0.00001842,0.00000068,-0.0000
 0263,-0.00030964,-0.00108090,0.00024065,-0.00000406,-0.00002215,-0.000
 02720,0.00001067,0.00000655,0.00000483,0.00000596,-0.00001172,-0.00000
 570,-0.00004485,0.00006088,-0.00003138,-0.00000019,-0.00001214,0.00002
 600,-0.00000115,-0.00001786,-0.00000357,0.00010906,-0.00008120,-0.0000
 0750,0.00000382,-0.00001205,-0.00000987,0.00000467,0.00000463,0.000005
 14,0.00000331,-0.00000294,-0.00000767,-0.00007038,0.00006245,-0.000062
 08,0.00006480,0.00006324,0.00006528,0.00390488,0.00204561,0.00240165,-
 0.00000135,0.00000285,-0.00000604,-0.00000150,0.00000072,0.00000077,-0
 .00000695,-0.00000218,-0.00000786,0.00000008,0.00000051,0.00000127,0.0
 0051051,0.00280707,0.00522128,-0.00055167,0.00061330,-0.00029355,-0.00
 000791,-0.00000128,0.00001113,0.00000271,0.00000158,0.00000381,-0.0000
 0136,-0.00000164,0.00000451,-0.00000198,0.00000012,-0.00000014,0.00457
 506,-0.00210955,0.00197137,-0.00136294,-0.00172437,-0.00153534,-0.0082
 0464,0.01568224,-0.00554762,-0.00118042,-0.00190348,-0.00098692,0.0000
 1730,-0.00002834,-0.00000520,0.00000545,0.00001915,0.00000444,0.000011
 15,-0.00000450,-0.00000248,0.00000294,0.00000402,0.00000181,0.00001236
 ,-0.00002217,-0.00000139,0.00000108,0.00002010,0.00001254,-0.00005492,
 0.00000104,-0.00003940,0.00000270,0.00008850,0.00002460,-0.17273969,0.
 14595069,-0.01870574,0.17570054,-0.00005523,0.00004152,-0.00000590,0.0
 0030391,-0.00067215,0.00048600,0.00000673,-0.00000710,-0.00000263,-0.0
 0085893,-0.00012251,-0.00019168,0.00001273,-0.00002080,-0.00001367,-0.
 00000074,0.00000637,0.00000106,0.00000075,-0.00002036,0.00001161,0.000
 00888,0.00002981,-0.00001947,-0.00000248,-0.00000564,0.00001188,0.0000
 2505,-0.00000434,0.00000105,0.00004194,-0.00006484,0.00002919,0.000015
 84,-0.00001174,0.00000850,0.00000139,-0.00000475,-0.00000086,-0.000000
 61,0.00000471,0.00000012,-0.00002783,0.00014757,-0.00007226,-0.0000031
 7,0.00003143,0.00006513,0.00174370,0.00295849,0.00439717,0.00000146,0.
 00000110,-0.00000481,-0.00000125,0.00000120,0.00000090,-0.00000073,-0.
 00000398,0.00000021,-0.00000087,0.00000178,0.00000001,0.00269604,0.003
 96398,0.00033289,0.00008292,-0.00025143,0.00012964,0.00001182,-0.00000
 179,0.00000510,-0.00000562,0.00000133,-0.00000169,-0.00000073,0.000000
 08,0.00000200,0.00000050,0.00000072,-0.00000005,0.01199479,-0.00820167
 ,0.00036996,-0.00203792,-0.00135454,-0.00117311,0.00249135,-0.00016665
 ,0.00240941,-0.00156513,-0.00125440,-0.00138770,-0.00001756,0.00000241
 ,0.00000695,-0.00000365,-0.00001602,-0.00001349,-0.00000429,0.00000394
 ,-0.00001438,0.00000007,0.00000074,-0.00000153,0.00001738,0.00000015,-
 0.00000229,-0.00000462,-0.00000189,0.00000294,0.00000013,0.00002157,0.
 00000854,-0.00000596,-0.00000501,-0.00000868,0.14561130,-0.20452029,0.
 03291785,-0.16004937,0.20986956,-0.00001007,0.00002455,-0.00001527,-0.
 00056885,0.00099419,-0.00079857,-0.00000032,0.00000155,0.00000093,0.00
 026602,0.00000806,-0.00159141,0.00000292,-0.00000963,0.00000104,0.0000
 0460,0.00000353,-0.00000024,0.00000540,-0.00000627,0.00001964,0.000007
 47,-0.00000974,0.00003994,0.00000293,-0.00000399,0.00000239,0.00000553
 ,-0.00000680,0.00000161,-0.00002088,-0.00002975,-0.00001843,-0.0000026
 2,-0.00000977,0.00000781,-0.00000609,-0.00000166,-0.00000741,-0.000001
 26,0.00000432,0.00000194,0.00003496,0.00008052,-0.00003193,-0.00004397
 ,-0.00000216,0.00007349,0.00213007,0.00451314,-0.00162056,-0.00000141,
 0.00000077,0.00000027,-0.00000065,0.00000062,0.00000016,0.00000147,-0.
 00000165,0.00000534,-0.00000108,0.00000098,0.00000011,0.00507066,0.000
 91684,-0.00182213,0.00078633,-0.00086836,0.00017026,0.00000375,-0.0000
 0637,0.00000015,0.00000995,0.00000116,0.00000517,0.00000096,-0.0000007
 3,-0.00000154,0.00000072,0.00000088,0.00000035,-0.01802299,0.01947656,
 0.00126495,-0.00108383,-0.00158519,-0.00034590,0.01436598,-0.01712642,
 0.00806233,-0.00152088,-0.00096433,-0.00013844,0.00000775,-0.00002704,
 -0.00002653,0.00000826,0.00004377,0.00001239,-0.00001278,-0.00000029,-
 0.00000385,0.00000073,-0.00000123,0.00000144,0.00000599,-0.00001114,0.
 00000509,-0.00000832,-0.00000552,-0.00000007,-0.00003207,0.00001911,-0
 .00001302,-0.00000091,0.00002671,0.00001323,-0.01851696,0.03297260,-0.
 05951335,0.01732862,-0.03811678,0.05632025,0.00001978,-0.00102533,-0.0
 0104128,-0.00361719,0.00374140,-0.00245327,-0.00111462,0.00255010,-0.0
 0292260,-0.16707965,0.08082045,-0.00999542,0.00040197,0.00044456,0.000
 93376,-0.00060449,-0.00012469,-0.00020636,-0.00005340,0.00096689,0.000
 17629,-0.00329483,-0.01020145,0.01321099,-0.00079402,0.00033069,-0.000
 56315,0.00010037,0.00029579,0.00021846,-0.04091826,0.02144820,-0.00539
 394,-0.00010447,0.00013165,0.00043922,0.00098129,-0.00038192,-0.000583
 80,-0.00000233,-0.00030594,0.00041458,-0.41328724,-0.00959587,0.178740
 86,-0.00027269,0.00156861,0.00377414,-0.02885940,0.01684408,0.00768065
 ,-0.00001733,-0.00030104,-0.00020013,-0.00000337,-0.00003719,0.0000136
 5,0.00012245,0.00025707,0.00034056,0.00003060,0.00003662,-0.00004619,0
 .00113697,0.01448436,-0.01536437,-0.00297184,-0.00227869,-0.00012025,-
 0.00004657,0.00025484,-0.00019221,0.00007335,0.00002290,0.00001673,0.0
 0021661,0.00011615,-0.00011382,0.00005549,-0.00001947,0.00001715,0.001
 43310,0.00052918,0.00516114,-0.00004948,0.00066832,-0.00029847,0.00876
 238,-0.00327008,0.00144076,0.00042922,-0.00066242,0.00017678,0.0003346
 2,-0.00029602,-0.00059728,0.00000218,0.00016685,0.00019970,0.00042243,
 -0.00037211,0.00086377,-0.00002345,-0.00008203,-0.00004690,-0.00094698
 ,-0.00044762,-0.00028122,0.00005832,0.00002086,-0.00003082,0.00012799,
 -0.00055531,0.00022274,0.00003930,0.00035837,0.00005694,-0.00255461,0.
 00006369,0.00211083,-0.00040731,-0.00041552,-0.00026817,0.70863801,-0.
 00002322,0.00063729,0.00024555,0.00030658,-0.00354502,0.00164664,0.002
 30399,-0.00164143,0.00337186,0.08691958,-0.15073331,0.03548529,-0.0000
 5782,-0.00038600,-0.00044643,0.00015268,0.00004946,0.00001273,0.000648
 32,-0.00011128,-0.00015200,0.00193135,-0.00001736,-0.00120005,0.001065
 60,0.00022038,-0.00025888,0.00003396,-0.00019428,-0.00005559,0.0249154
 7,0.00177318,-0.00769446,-0.00002046,-0.00008973,-0.00011400,-0.000470
 35,0.00055539,0.00074364,-0.00013905,-0.00026054,-0.00051562,-0.008098
 27,-0.08231336,0.03693076,-0.02051375,0.00388933,0.00937768,0.01220974
 ,0.00042013,-0.00910367,0.00001401,0.00015369,0.00042474,0.00007949,0.
 00004683,-0.00003189,0.00009488,0.00019702,-0.00036072,0.00002165,-0.0
 0000786,0.00000746,0.01665078,-0.01882225,0.01162773,-0.00141766,-0.00
 099199,-0.00201105,-0.00051627,0.00001944,-0.00007902,0.00006894,0.000
 06336,0.00013300,-0.00014445,-0.00011753,-0.00008754,-0.00003166,-0.00
 001665,-0.00003102,0.00205147,0.00470547,0.00063252,-0.00017921,0.0002
 6768,0.00021786,-0.00127425,0.00451323,0.00619872,0.00044922,-0.000335
 65,0.00003458,-0.00013899,-0.00101884,-0.00035432,0.00003790,0.0000758
 5,-0.00014219,0.00056346,-0.00021137,0.00029075,0.00007424,0.00008371,
 0.00006604,0.00025675,-0.00073466,-0.00039644,-0.00002849,0.00011650,-
 0.00000627,-0.00149600,-0.00198073,-0.00070684,0.00007671,-0.00010825,
 0.00007317,-0.00037440,-0.00005965,-0.00109816,-0.00024391,-0.00041146
 ,-0.00028213,-0.09775294,0.41098038,-0.00031454,0.00144888,0.00075096,
 0.00262458,-0.00210354,-0.00203474,-0.00277740,0.00166713,-0.00068989,
 -0.02081838,0.04530294,-0.10166315,-0.00020147,-0.00062534,-0.00086549
 ,0.00048400,0.00009402,0.00034631,0.00017435,-0.00008951,-0.00055485,-
 0.00141545,0.00636376,-0.00641160,-0.00019427,-0.00043316,0.00121837,0
 .00009906,-0.00039240,-0.00004829,-0.00337626,-0.00922564,0.01587638,0
 .00018456,-0.00018737,-0.00023000,-0.00023363,0.00001827,-0.00062538,0
 .00019180,0.00029316,0.00035714,0.18086307,0.03712143,-0.17795606,0.02
 158674,0.00114089,-0.00535705,0.01714681,-0.01820135,0.00891427,0.0000
 0634,-0.00003547,-0.00015144,-0.00010769,-0.00001151,0.00003863,-0.000
 11888,-0.00031660,0.00009273,-0.00006591,-0.00004374,0.00004724,-0.022
 91988,0.02040138,0.00030915,-0.00030868,-0.00103374,0.00006490,-0.0009
 6013,-0.00024949,-0.00017013,-0.00008080,0.00001419,-0.00007633,-0.000
 15735,-0.00002451,0.00020173,0.00001170,0.00002374,0.00003049,0.005155
 48,0.00069828,-0.00239411,0.00084532,-0.00107709,0.00030037,0.00196397
 ,0.00408649,-0.00382211,-0.00082107,0.00114116,-0.00005343,0.00005492,
 -0.00094791,-0.00036508,0.00017153,-0.00005268,-0.00005435,0.00026377,
 0.00094441,-0.00012529,-0.00005048,0.00010476,0.00001513,0.00141214,-0
 .00018353,-0.00028674,0.00000861,-0.00008772,0.00001380,-0.00068266,-0
 .00161597,-0.00001082,0.00003025,0.00009934,-0.00000657,0.00040463,-0.
 00029322,-0.00133966,-0.00026330,-0.00020056,-0.00006693,-0.20480098,-
 0.22234133,0.48570831,-0.00008939,-0.00029326,-0.00013926,-0.00262921,
 0.00074650,0.00306556,0.00069946,0.00043845,-0.00005523,0.00552243,0.0
 1465186,-0.01686141,0.00009775,0.00014600,0.00010337,-0.00020072,-0.00
 005364,-0.00011120,-0.00004338,0.00009279,0.00011047,0.00022640,0.0015
 6196,-0.00140051,-0.00010735,0.00013762,-0.00014701,0.00006089,0.00010
 117,-0.00000886,-0.00177648,-0.00424644,0.00071986,0.00003176,0.000066
 37,0.00005976,0.00010209,0.00003365,0.00041510,-0.00011960,-0.00002350
 ,-0.00017280,-0.00019113,-0.01800692,0.02291511,-0.00337009,0.00272337
 ,0.00402066,0.00089207,0.00016172,-0.00217189,0.00005277,-0.00004759,-
 0.00006013,0.00001763,0.00000323,-0.00000426,0.00000308,0.00000730,-0.
 00013227,0.00002257,0.00001160,-0.00001485,-0.00324865,0.00327200,0.00
 111144,0.00016233,0.00000008,0.00001182,0.00000677,0.00001926,-0.00000
 377,0.00000649,-0.00002799,-0.00008012,0.00003486,-0.00000917,0.000017
 81,-0.00001181,0.00000924,-0.00001065,-0.00010717,-0.00030230,-0.00004
 969,-0.00001394,0.00000476,0.00002679,0.00005979,0.00018988,-0.0011735
 5,-0.00026620,0.00023515,-0.00009291,0.00011495,-0.00004799,-0.0000160
 8,0.00000704,0.00005884,0.00001698,0.00001224,-0.00001576,0.00007543,0
 .00001785,0.00000122,0.00000538,-0.00003245,0.00005528,0.00005052,-0.0
 0000923,0.00002650,-0.00001215,-0.00006669,0.00009460,0.00000643,-0.00
 000647,-0.00001194,-0.00001536,0.00009939,0.00001915,0.00003631,0.0000
 0356,-0.00000647,0.00007302,-0.05636292,-0.01800562,0.02698560,0.06039
 873,-0.00035747,0.00035560,-0.00002658,0.00031159,0.00057958,-0.000818
 05,0.00001538,0.00016752,0.00040241,-0.00263123,-0.00588961,0.01321980
 ,0.00005798,-0.00018349,-0.00011977,0.00000912,0.00007560,0.00000804,-
 0.00008497,0.00001771,0.00007069,0.00174566,-0.00056805,0.00029748,-0.
 00015956,-0.00000297,0.00007035,0.00013954,-0.00005453,-0.00000339,-0.
 00061528,-0.00445843,-0.00292442,0.00010286,-0.00010297,0.00006409,-0.
 00007490,-0.00006308,0.00017420,-0.00013110,0.00007108,-0.00002626,-0.
 00129029,0.00647003,0.00159184,0.00269399,0.00476816,0.00457984,-0.000
 62802,-0.00052209,0.00105755,0.00009910,0.00001147,-0.00010285,-0.0000
 0989,0.00000164,0.00000141,-0.00016742,-0.00011217,-0.00002975,-0.0000
 0966,-0.00000622,0.00000218,0.00305412,-0.00088008,-0.00034281,-0.0000
 9712,0.00007063,0.00008797,0.00001647,-0.00000363,-0.00002906,-0.00004
 049,0.00000212,-0.00007423,0.00003283,-0.00002070,0.00015482,-0.000006
 65,0.00001890,-0.00000012,-0.00012204,-0.00007489,-0.00011728,0.000031
 20,0.00000346,-0.00000581,-0.00070098,0.00001735,0.00085084,0.00008704
 ,-0.00023810,-0.00004645,0.00004334,0.00004590,-0.00001035,0.00004101,
 -0.00002009,-0.00000993,-0.00003370,0.00006430,-0.00002719,-0.00000952
 ,0.00000868,-0.00001116,0.00008978,0.00004948,0.00016456,0.00001091,-0
 .00002804,-0.00002248,0.00013598,0.00007999,0.00020331,0.00000060,0.00
 003781,0.00000026,0.00017438,0.00000495,-0.00015740,0.00004437,0.00003
 490,-0.00001292,-0.01799599,-0.16465911,0.13880915,0.01622904,0.164931
 39,-0.00015780,0.00016533,0.00021289,0.00397664,-0.00185024,-0.0020610
 6,0.00024953,0.00040540,0.00033198,0.00011968,0.00447934,-0.00065842,-
 0.00005707,-0.00013898,-0.00012993,0.00004767,0.00003256,0.00008764,0.
 00001956,0.00005539,0.00000120,-0.00155979,0.00017398,0.00057404,-0.00
 010153,0.00002816,-0.00001409,0.00005207,-0.00002625,-0.00005195,-0.00
 067065,-0.00307342,-0.00385157,0.00009143,0.00000613,-0.00007816,0.000
 15564,-0.00005546,0.00005048,-0.00008638,0.00012481,-0.00003297,0.0027
 3574,0.01261164,-0.00671631,0.00290798,0.00330985,0.00414177,-0.000273
 33,-0.00017300,-0.00064014,0.00013133,0.00000327,-0.00009242,0.0000016
 2,-0.00000307,-0.00000229,-0.00022408,-0.00017265,-0.00008442,-0.00000
 638,0.00000441,0.00000331,0.00069988,0.00064559,0.00121729,0.00004229,
 -0.00003313,0.00009784,0.00004688,0.00005759,0.00015972,-0.00004285,-0
 .00001235,-0.00010060,0.00004998,-0.00002813,0.00019560,-0.00001051,0.
 00002844,0.00000269,-0.00011962,0.00017684,-0.00032405,-0.00000571,0.0
 0001020,0.00003361,-0.00026924,0.00004688,-0.00008097,-0.00010820,-0.0
 0006053,-0.00004057,0.00004098,-0.00001394,0.00009797,0.00004497,0.000
 01668,0.00001439,-0.00000145,-0.00003111,0.00004864,-0.00000538,-0.000
 00886,-0.00001103,-0.00008125,0.00007406,0.00012089,-0.00001460,-0.000
 04768,-0.00001251,0.00009080,0.00013866,-0.00006378,0.00000104,-0.0000
 0497,-0.00001018,0.00005742,0.00004880,0.00002392,0.00001521,0.0000334
 3,0.00000531,0.02931093,0.13994888,-0.20892640,-0.03709346,-0.15689253
 ,0.21656262\\-0.00002482,0.00008417,0.00009183,0.00001053,0.00000868,-
 0.00000391,0.00000849,-0.00000824,-0.00001897,0.00000384,0.00000705,0.
 00000600,0.00003063,-0.00005649,-0.00006538,-0.00002317,-0.00001784,-0
 .00000074,-0.00001568,-0.00001438,0.00002337,0.00000515,-0.00001399,-0
 .00000281,0.00000533,-0.00000969,0.00002452,-0.00001005,-0.00002199,0.
 00000267,0.00000592,-0.00000143,0.00001004,0.00001431,0.00001214,-0.00
 003079,-0.00000289,-0.00000473,-0.00000154,0.00000233,0.00000213,0.000
 00130,-0.00001557,-0.00001103,0.00000167,-0.00000158,0.00001480,-0.000
 00549,-0.00000957,0.00000498,0.00000566,0.00000189,-0.00001061,0.00001
 005,-0.00000312,0.00000183,-0.00001470,-0.00000034,0.00000439,-0.00001
 234,0.00000804,-0.00000460,0.00000601,0.00000770,-0.00000351,0.0000047
 7,0.00000181,0.00000737,0.00000588,0.00001827,0.00000276,-0.00000223,-
 0.00000192,0.00000403,-0.00000200,-0.00001307,-0.00000232,-0.00000613,
 0.00000184,-0.00000487,0.00000387,0.00000298,-0.00000368,0.00000666,0.
 00000327,0.00000390,-0.00000372,-0.00001575,0.00001433,-0.00000147,0.0
 0000198,-0.00000053,0.00000301,-0.00001379,0.00001030,0.00000319,0.000
 00557,-0.00000592,-0.00000554,0.00001395,0.00001736,-0.00002005,-0.000
 01059,-0.00000353,0.00001203,0.00001732,-0.00000661,-0.00001739,-0.000
 00029,-0.00000435,0.00000732,-0.00003480,-0.00000123,-0.00000139,0.000
 01772,-0.00001209,0.00000919,0.00000605,0.00000586,-0.00001818,0.00000
 375,0.00000028,0.00000262,-0.00001008,0.00000663,-0.00000909,0.0000084
 2,0.00001069,0.00000219\\\@


 WHEN YOU REACH FOR THE STARS, YOU MAY NOT QUITE GET ONE,
 BUT YOU WON'T COME UP WITH A HANDFUL OF MUD, EITHER.

                                         -- LEO BURNETT (AD AGENCY HEAD)
 Job cpu time:       1 days  8 hours 41 minutes  3.0 seconds.
 Elapsed time:       0 days  2 hours  3 minutes  0.4 seconds.
 File lengths (MBytes):  RWF=   2008 Int=      0 D2E=      0 Chk=     48 Scr=      1
 Normal termination of Gaussian 16 at Wed Oct  8 08:19:52 2025.
