 Entering Gaussian System, Link 0=g16
 Input=NEMP0015.gjf
 Output=NEMP0015.log
 Initial command:
 /usr/local/g16/l1.exe "/dados_01/scratch/Gau-2557527.inp" -scrdir="/dados_01/scratch/"
 Entering Link 1 = /usr/local/g16/l1.exe PID=   2557528.
  
 Copyright (c) 1988-2017, Gaussian, Inc.  All Rights Reserved.
  
 This is part of the Gaussian(R) 16 program.  It is based on
 the Gaussian(R) 09 system (copyright 2009, Gaussian, Inc.),
 the Gaussian(R) 03 system (copyright 2003, Gaussian, Inc.),
 the Gaussian(R) 98 system (copyright 1998, Gaussian, Inc.),
 the Gaussian(R) 94 system (copyright 1995, Gaussian, Inc.),
 the Gaussian 92(TM) system (copyright 1992, Gaussian, Inc.),
 the Gaussian 90(TM) system (copyright 1990, Gaussian, Inc.),
 the Gaussian 88(TM) system (copyright 1988, Gaussian, Inc.),
 the Gaussian 86(TM) system (copyright 1986, Carnegie Mellon
 University), and the Gaussian 82(TM) system (copyright 1983,
 Carnegie Mellon University). Gaussian is a federally registered
 trademark of Gaussian, Inc.
  
 This software contains proprietary and confidential information,
 including trade secrets, belonging to Gaussian, Inc.
  
 This software is provided under written license and may be
 used, copied, transmitted, or stored only in accord with that
 written license.
  
 The following legend is applicable only to US Government
 contracts under FAR:
  
                    RESTRICTED RIGHTS LEGEND
  
 Use, reproduction and disclosure by the US Government is
 subject to restrictions as set forth in subparagraphs (a)
 and (c) of the Commercial Computer Software - Restricted
 Rights clause in FAR 52.227-19.
  
 Gaussian, Inc.
 340 Quinnipiac St., Bldg. 40, Wallingford CT 06492
  
  
 ---------------------------------------------------------------
 Warning -- This program may not be used in any manner that
 competes with the business of Gaussian, Inc. or will provide
 assistance to any competitor of Gaussian, Inc.  The licensee
 of this program is prohibited from giving any competitor of
 Gaussian, Inc. access to this program.  By using this program,
 the user acknowledges that Gaussian, Inc. is engaged in the
 business of creating and licensing software in the field of
 computational chemistry and represents and warrants to the
 licensee that it is not a competitor of Gaussian, Inc. and that
 it will not use this program in any manner prohibited above.
 ---------------------------------------------------------------
  

 Cite this work as:
 Gaussian 16, Revision B.01,
 M. J. Frisch, G. W. Trucks, H. B. Schlegel, G. E. Scuseria, 
 M. A. Robb, J. R. Cheeseman, G. Scalmani, V. Barone, 
 G. A. Petersson, H. Nakatsuji, X. Li, M. Caricato, A. V. Marenich, 
 J. Bloino, B. G. Janesko, R. Gomperts, B. Mennucci, H. P. Hratchian, 
 J. V. Ortiz, A. F. Izmaylov, J. L. Sonnenberg, D. Williams-Young, 
 F. Ding, F. Lipparini, F. Egidi, J. Goings, B. Peng, A. Petrone, 
 T. Henderson, D. Ranasinghe, V. G. Zakrzewski, J. Gao, N. Rega, 
 G. Zheng, W. Liang, M. Hada, M. Ehara, K. Toyota, R. Fukuda, 
 J. Hasegawa, M. Ishida, T. Nakajima, Y. Honda, O. Kitao, H. Nakai, 
 T. Vreven, K. Throssell, J. A. Montgomery, Jr., J. E. Peralta, 
 F. Ogliaro, M. J. Bearpark, J. J. Heyd, E. N. Brothers, K. N. Kudin, 
 V. N. Staroverov, T. A. Keith, R. Kobayashi, J. Normand, 
 K. Raghavachari, A. P. Rendell, J. C. Burant, S. S. Iyengar, 
 J. Tomasi, M. Cossi, J. M. Millam, M. Klene, C. Adamo, R. Cammi, 
 J. W. Ochterski, R. L. Martin, K. Morokuma, O. Farkas, 
 J. B. Foresman, and D. J. Fox, Gaussian, Inc., Wallingford CT, 2016.
 
 ******************************************
 Gaussian 16:  ES64L-G16RevB.01 20-Dec-2017
                 8-Oct-2025 
 ******************************************
 %nprocs=16
 Will use up to   16 processors via shared memory.
 %mem=40GB
 %chk=NEMP0015.chk
 ----------------------------------------------------------------------
 # opt freq=noraman M08HX/6-311++G** scf=xqc Empiricaldispersion=pfd In
 t(Grid=ultraFine)
 ----------------------------------------------------------------------
 1/18=20,19=15,26=4,38=1/1,3;
 2/9=110,12=2,17=6,18=5,40=1/2;
 3/5=4,6=6,7=1111,11=2,25=1,30=1,71=1,74=-74,75=-5,124=11/1,2,3;
 4//1;
 5/5=2,8=3,13=1,38=5/2,8;
 6/7=2,8=2,9=2,10=2,28=1/1;
 7//1,2,3,16;
 1/18=20,19=15,26=4/3(2);
 2/9=110/2;
 99//99;
 2/9=110/2;
 3/5=4,6=6,7=1111,11=2,25=1,30=1,71=1,74=-74,75=-5,124=11/1,2,3;
 4/5=5,16=3,69=1/1;
 5/5=2,8=3,13=1,38=5/2,8;
 7//1,2,3,16;
 1/18=20,19=15,26=4/3(-5);
 2/9=110/2;
 6/7=2,8=2,9=2,10=2,19=2,28=1/1;
 99/9=1/99;
 --------
 NEMP0015
 --------
 Symbolic Z-matrix:
 Charge =  0 Multiplicity = 1
 S                     1.6154    3.5792    2.6398 
 O                     4.0322    6.303     1.5516 
 O                     9.0811    7.346     1.5231 
 O                     1.3557    2.1866    2.5092 
 O                     0.5611    4.5126    2.4035 
 N                     2.793     4.0293    1.5958 
 H                     2.584     4.952     1.4879 
 C                     5.2166    4.2484    1.4427 
 C                     2.2579    3.8701    4.2626 
 C                     4.0718    3.4287    1.5144 
 C                     5.1349    5.7303    1.5527 
 C                     6.3615    6.5343    1.6698 
 H                     7.1908    6.1285    1.552 
 C                     8.7151    8.6256    1.7673 
 C                     7.3389    8.8497    2.0209 
 C                     6.2969    7.8371    1.942 
 H                     5.4389    8.1537    2.1108 
 C                     6.4497    3.606     1.2458 
 H                     7.2193    4.1233    1.1712 
 C                     9.603     9.6906    1.7627 
 H                     10.4999   9.5424    1.5677 
 C                     2.3909    2.8414    5.1637 
 H                     2.1584    1.9713    4.9308 
 C                     2.61      5.1642    4.601 
 H                     2.5217    5.8523    3.9808 
 C                     4.1934    2.0504    1.4277 
 H                     3.4327    1.5155    1.4748 
 C                     6.9526    10.1576   2.3149 
 H                     6.0577    10.3297   2.4994 
 C                     2.8817    3.1302    6.4331 
 H                     2.9713    2.4471    7.0586 
 C                     7.8459    11.2035   2.3424 
 H                     7.5597    12.0611   2.5596 
 C                     9.1678    10.9625   2.0443 
 H                     9.7732    11.6681   2.0336 
 C                     3.2329    4.4096    6.7694 
 H                     3.5687    4.5891    7.6174 
 C                     3.0906    5.4254    5.8625 
 H                     3.3212    6.2955    6.0994 
 C                     6.5576    2.2462    1.1594 
 H                     7.3881    1.8482    1.0233 
 C                     5.4253    1.469     1.2746 
 H                     5.4971    0.5424    1.2471 
 C                     10.4653   7.0727    1.3073 
 H                     10.7641   7.5347    0.5208 
 H                     10.5907   6.1285    1.1908 
 H                     10.9725   7.3715    2.0663 
 

 GradGradGradGradGradGradGradGradGradGradGradGradGradGradGradGradGradGrad
 Berny optimization.
 Initialization pass.
                           ----------------------------
                           !    Initial Parameters    !
                           ! (Angstroms and Degrees)  !
 --------------------------                            --------------------------
 ! Name  Definition              Value          Derivative Info.                !
 --------------------------------------------------------------------------------
 ! R1    R(1,4)                  1.4226         estimate D2E/DX2                !
 ! R2    R(1,5)                  1.4278         estimate D2E/DX2                !
 ! R3    R(1,6)                  1.6368         estimate D2E/DX2                !
 ! R4    R(1,9)                  1.7694         estimate D2E/DX2                !
 ! R5    R(2,11)                 1.2426         estimate D2E/DX2                !
 ! R6    R(3,14)                 1.3531         estimate D2E/DX2                !
 ! R7    R(3,44)                 1.4273         estimate D2E/DX2                !
 ! R8    R(6,7)                  0.9522         estimate D2E/DX2                !
 ! R9    R(6,10)                 1.4152         estimate D2E/DX2                !
 ! R10   R(8,10)                 1.4098         estimate D2E/DX2                !
 ! R11   R(8,11)                 1.4882         estimate D2E/DX2                !
 ! R12   R(8,18)                 1.4043         estimate D2E/DX2                !
 ! R13   R(9,22)                 1.374          estimate D2E/DX2                !
 ! R14   R(9,24)                 1.3832         estimate D2E/DX2                !
 ! R15   R(10,26)                1.3864         estimate D2E/DX2                !
 ! R16   R(11,12)                1.4713         estimate D2E/DX2                !
 ! R17   R(12,13)                0.9307         estimate D2E/DX2                !
 ! R18   R(12,16)                1.3325         estimate D2E/DX2                !
 ! R19   R(14,15)                1.4172         estimate D2E/DX2                !
 ! R20   R(14,20)                1.3866         estimate D2E/DX2                !
 ! R21   R(15,16)                1.4551         estimate D2E/DX2                !
 ! R22   R(15,28)                1.3951         estimate D2E/DX2                !
 ! R23   R(16,17)                0.93           estimate D2E/DX2                !
 ! R24   R(18,19)                0.9303         estimate D2E/DX2                !
 ! R25   R(18,40)                1.3668         estimate D2E/DX2                !
 ! R26   R(20,21)                0.9297         estimate D2E/DX2                !
 ! R27   R(20,34)                1.3735         estimate D2E/DX2                !
 ! R28   R(22,23)                0.9303         estimate D2E/DX2                !
 ! R29   R(22,30)                1.3913         estimate D2E/DX2                !
 ! R30   R(24,25)                0.9306         estimate D2E/DX2                !
 ! R31   R(24,38)                1.375          estimate D2E/DX2                !
 ! R32   R(26,27)                0.9311         estimate D2E/DX2                !
 ! R33   R(26,42)                1.3708         estimate D2E/DX2                !
 ! R34   R(28,29)                0.9298         estimate D2E/DX2                !
 ! R35   R(28,32)                1.3757         estimate D2E/DX2                !
 ! R36   R(30,31)                0.9305         estimate D2E/DX2                !
 ! R37   R(30,36)                1.3687         estimate D2E/DX2                !
 ! R38   R(32,33)                0.9298         estimate D2E/DX2                !
 ! R39   R(32,34)                1.3764         estimate D2E/DX2                !
 ! R40   R(34,35)                0.9298         estimate D2E/DX2                !
 ! R41   R(36,37)                0.9296         estimate D2E/DX2                !
 ! R42   R(36,38)                1.3691         estimate D2E/DX2                !
 ! R43   R(38,39)                0.9308         estimate D2E/DX2                !
 ! R44   R(40,41)                0.9309         estimate D2E/DX2                !
 ! R45   R(40,42)                1.3782         estimate D2E/DX2                !
 ! R46   R(42,43)                0.9298         estimate D2E/DX2                !
 ! R47   R(44,45)                0.9598         estimate D2E/DX2                !
 ! R48   R(44,46)                0.9596         estimate D2E/DX2                !
 ! R49   R(44,47)                0.9605         estimate D2E/DX2                !
 ! A1    A(4,1,5)              119.3372         estimate D2E/DX2                !
 ! A2    A(4,1,6)              109.9962         estimate D2E/DX2                !
 ! A3    A(4,1,9)              108.1445         estimate D2E/DX2                !
 ! A4    A(5,1,6)              104.2358         estimate D2E/DX2                !
 ! A5    A(5,1,9)              108.2058         estimate D2E/DX2                !
 ! A6    A(6,1,9)              106.1716         estimate D2E/DX2                !
 ! A7    A(14,3,44)            118.0776         estimate D2E/DX2                !
 ! A8    A(1,6,7)              100.4178         estimate D2E/DX2                !
 ! A9    A(1,6,10)             124.7568         estimate D2E/DX2                !
 ! A10   A(7,6,10)             127.0905         estimate D2E/DX2                !
 ! A11   A(10,8,11)            122.0468         estimate D2E/DX2                !
 ! A12   A(10,8,18)            117.0127         estimate D2E/DX2                !
 ! A13   A(11,8,18)            120.9365         estimate D2E/DX2                !
 ! A14   A(1,9,22)             120.8994         estimate D2E/DX2                !
 ! A15   A(1,9,24)             118.075          estimate D2E/DX2                !
 ! A16   A(22,9,24)            121.0229         estimate D2E/DX2                !
 ! A17   A(6,10,8)             119.3366         estimate D2E/DX2                !
 ! A18   A(6,10,26)            120.3175         estimate D2E/DX2                !
 ! A19   A(8,10,26)            120.2406         estimate D2E/DX2                !
 ! A20   A(2,11,8)             120.5043         estimate D2E/DX2                !
 ! A21   A(2,11,12)            119.2133         estimate D2E/DX2                !
 ! A22   A(8,11,12)            120.2819         estimate D2E/DX2                !
 ! A23   A(11,12,13)           119.6367         estimate D2E/DX2                !
 ! A24   A(11,12,16)           120.672          estimate D2E/DX2                !
 ! A25   A(13,12,16)           119.6913         estimate D2E/DX2                !
 ! A26   A(3,14,15)            116.3906         estimate D2E/DX2                !
 ! A27   A(3,14,20)            123.541          estimate D2E/DX2                !
 ! A28   A(15,14,20)           120.0638         estimate D2E/DX2                !
 ! A29   A(14,15,16)           125.1442         estimate D2E/DX2                !
 ! A30   A(14,15,28)           117.055          estimate D2E/DX2                !
 ! A31   A(16,15,28)           117.7453         estimate D2E/DX2                !
 ! A32   A(12,16,15)           131.0518         estimate D2E/DX2                !
 ! A33   A(12,16,17)           114.4972         estimate D2E/DX2                !
 ! A34   A(15,16,17)           114.451          estimate D2E/DX2                !
 ! A35   A(8,18,19)            118.9007         estimate D2E/DX2                !
 ! A36   A(8,18,40)            122.2286         estimate D2E/DX2                !
 ! A37   A(19,18,40)           118.8706         estimate D2E/DX2                !
 ! A38   A(14,20,21)           119.7355         estimate D2E/DX2                !
 ! A39   A(14,20,34)           120.5102         estimate D2E/DX2                !
 ! A40   A(21,20,34)           119.7543         estimate D2E/DX2                !
 ! A41   A(9,22,23)            120.7897         estimate D2E/DX2                !
 ! A42   A(9,22,30)            118.4963         estimate D2E/DX2                !
 ! A43   A(23,22,30)           120.714          estimate D2E/DX2                !
 ! A44   A(9,24,25)            120.306          estimate D2E/DX2                !
 ! A45   A(9,24,38)            119.4174         estimate D2E/DX2                !
 ! A46   A(25,24,38)           120.2765         estimate D2E/DX2                !
 ! A47   A(10,26,27)           119.7556         estimate D2E/DX2                !
 ! A48   A(10,26,42)           120.496          estimate D2E/DX2                !
 ! A49   A(27,26,42)           119.7484         estimate D2E/DX2                !
 ! A50   A(15,28,29)           118.8067         estimate D2E/DX2                !
 ! A51   A(15,28,32)           122.4898         estimate D2E/DX2                !
 ! A52   A(29,28,32)           118.7034         estimate D2E/DX2                !
 ! A53   A(22,30,31)           119.6625         estimate D2E/DX2                !
 ! A54   A(22,30,36)           120.58           estimate D2E/DX2                !
 ! A55   A(31,30,36)           119.7575         estimate D2E/DX2                !
 ! A56   A(28,32,33)           120.3981         estimate D2E/DX2                !
 ! A57   A(28,32,34)           119.0901         estimate D2E/DX2                !
 ! A58   A(33,32,34)           120.5118         estimate D2E/DX2                !
 ! A59   A(20,34,32)           120.7225         estimate D2E/DX2                !
 ! A60   A(20,34,35)           119.6098         estimate D2E/DX2                !
 ! A61   A(32,34,35)           119.6677         estimate D2E/DX2                !
 ! A62   A(30,36,37)           119.8248         estimate D2E/DX2                !
 ! A63   A(30,36,38)           120.2715         estimate D2E/DX2                !
 ! A64   A(37,36,38)           119.9036         estimate D2E/DX2                !
 ! A65   A(24,38,36)           120.2054         estimate D2E/DX2                !
 ! A66   A(24,38,39)           119.8468         estimate D2E/DX2                !
 ! A67   A(36,38,39)           119.9477         estimate D2E/DX2                !
 ! A68   A(18,40,41)           120.3312         estimate D2E/DX2                !
 ! A69   A(18,40,42)           119.3993         estimate D2E/DX2                !
 ! A70   A(41,40,42)           120.2694         estimate D2E/DX2                !
 ! A71   A(26,42,40)           120.5638         estimate D2E/DX2                !
 ! A72   A(26,42,43)           119.6952         estimate D2E/DX2                !
 ! A73   A(40,42,43)           119.7409         estimate D2E/DX2                !
 ! A74   A(3,44,45)            109.4884         estimate D2E/DX2                !
 ! A75   A(3,44,46)            109.4809         estimate D2E/DX2                !
 ! A76   A(3,44,47)            109.4542         estimate D2E/DX2                !
 ! A77   A(45,44,46)           109.4781         estimate D2E/DX2                !
 ! A78   A(45,44,47)           109.4736         estimate D2E/DX2                !
 ! A79   A(46,44,47)           109.4521         estimate D2E/DX2                !
 ! D1    D(4,1,6,7)            154.7997         estimate D2E/DX2                !
 ! D2    D(4,1,6,10)           -54.2822         estimate D2E/DX2                !
 ! D3    D(5,1,6,7)             25.7334         estimate D2E/DX2                !
 ! D4    D(5,1,6,10)           176.6515         estimate D2E/DX2                !
 ! D5    D(9,1,6,7)            -88.4199         estimate D2E/DX2                !
 ! D6    D(9,1,6,10)            62.4981         estimate D2E/DX2                !
 ! D7    D(4,1,9,22)            -1.9395         estimate D2E/DX2                !
 ! D8    D(4,1,9,24)           178.659          estimate D2E/DX2                !
 ! D9    D(5,1,9,22)           128.6428         estimate D2E/DX2                !
 ! D10   D(5,1,9,24)           -50.7588         estimate D2E/DX2                !
 ! D11   D(6,1,9,22)          -119.9549         estimate D2E/DX2                !
 ! D12   D(6,1,9,24)            60.6435         estimate D2E/DX2                !
 ! D13   D(44,3,14,15)        -177.9446         estimate D2E/DX2                !
 ! D14   D(44,3,14,20)           2.8418         estimate D2E/DX2                !
 ! D15   D(14,3,44,45)         -62.8065         estimate D2E/DX2                !
 ! D16   D(14,3,44,46)         177.1687         estimate D2E/DX2                !
 ! D17   D(14,3,44,47)          57.1966         estimate D2E/DX2                !
 ! D18   D(1,6,10,8)          -133.9629         estimate D2E/DX2                !
 ! D19   D(1,6,10,26)           49.758          estimate D2E/DX2                !
 ! D20   D(7,6,10,8)             9.2177         estimate D2E/DX2                !
 ! D21   D(7,6,10,26)         -167.0614         estimate D2E/DX2                !
 ! D22   D(11,8,10,6)            4.6994         estimate D2E/DX2                !
 ! D23   D(11,8,10,26)        -179.0185         estimate D2E/DX2                !
 ! D24   D(18,8,10,6)         -174.5824         estimate D2E/DX2                !
 ! D25   D(18,8,10,26)           1.6996         estimate D2E/DX2                !
 ! D26   D(10,8,11,2)           -8.6789         estimate D2E/DX2                !
 ! D27   D(10,8,11,12)         171.0662         estimate D2E/DX2                !
 ! D28   D(18,8,11,2)          170.5752         estimate D2E/DX2                !
 ! D29   D(18,8,11,12)          -9.6797         estimate D2E/DX2                !
 ! D30   D(10,8,18,19)         178.3455         estimate D2E/DX2                !
 ! D31   D(10,8,18,40)          -1.6242         estimate D2E/DX2                !
 ! D32   D(11,8,18,19)          -0.9448         estimate D2E/DX2                !
 ! D33   D(11,8,18,40)         179.0854         estimate D2E/DX2                !
 ! D34   D(1,9,22,23)            1.025          estimate D2E/DX2                !
 ! D35   D(1,9,22,30)         -178.9892         estimate D2E/DX2                !
 ! D36   D(24,9,22,23)        -179.5911         estimate D2E/DX2                !
 ! D37   D(24,9,22,30)           0.3946         estimate D2E/DX2                !
 ! D38   D(1,9,24,25)           -1.0516         estimate D2E/DX2                !
 ! D39   D(1,9,24,38)          178.889          estimate D2E/DX2                !
 ! D40   D(22,9,24,25)         179.5476         estimate D2E/DX2                !
 ! D41   D(22,9,24,38)          -0.5118         estimate D2E/DX2                !
 ! D42   D(6,10,26,27)          -3.6793         estimate D2E/DX2                !
 ! D43   D(6,10,26,42)         176.3917         estimate D2E/DX2                !
 ! D44   D(8,10,26,27)        -179.9246         estimate D2E/DX2                !
 ! D45   D(8,10,26,42)           0.1463         estimate D2E/DX2                !
 ! D46   D(2,11,12,13)        -171.4601         estimate D2E/DX2                !
 ! D47   D(2,11,12,16)           8.505          estimate D2E/DX2                !
 ! D48   D(8,11,12,13)           8.7916         estimate D2E/DX2                !
 ! D49   D(8,11,12,16)        -171.2433         estimate D2E/DX2                !
 ! D50   D(11,12,16,15)       -175.4591         estimate D2E/DX2                !
 ! D51   D(11,12,16,17)          4.5633         estimate D2E/DX2                !
 ! D52   D(13,12,16,15)          4.506          estimate D2E/DX2                !
 ! D53   D(13,12,16,17)       -175.4716         estimate D2E/DX2                !
 ! D54   D(3,14,15,16)          -4.6941         estimate D2E/DX2                !
 ! D55   D(3,14,15,28)         178.0868         estimate D2E/DX2                !
 ! D56   D(20,14,15,16)        174.5486         estimate D2E/DX2                !
 ! D57   D(20,14,15,28)         -2.6705         estimate D2E/DX2                !
 ! D58   D(3,14,20,21)           1.2316         estimate D2E/DX2                !
 ! D59   D(3,14,20,34)        -178.7514         estimate D2E/DX2                !
 ! D60   D(15,14,20,21)       -177.9545         estimate D2E/DX2                !
 ! D61   D(15,14,20,34)          2.0625         estimate D2E/DX2                !
 ! D62   D(14,15,16,12)          1.9714         estimate D2E/DX2                !
 ! D63   D(14,15,16,17)       -178.051          estimate D2E/DX2                !
 ! D64   D(28,15,16,12)        179.1731         estimate D2E/DX2                !
 ! D65   D(28,15,16,17)         -0.8493         estimate D2E/DX2                !
 ! D66   D(14,15,28,29)       -178.9823         estimate D2E/DX2                !
 ! D67   D(14,15,28,32)          1.014          estimate D2E/DX2                !
 ! D68   D(16,15,28,29)          3.587          estimate D2E/DX2                !
 ! D69   D(16,15,28,32)       -176.4168         estimate D2E/DX2                !
 ! D70   D(8,18,40,41)         179.624          estimate D2E/DX2                !
 ! D71   D(8,18,40,42)          -0.3277         estimate D2E/DX2                !
 ! D72   D(19,18,40,41)         -0.3457         estimate D2E/DX2                !
 ! D73   D(19,18,40,42)        179.7026         estimate D2E/DX2                !
 ! D74   D(14,20,34,32)          0.3206         estimate D2E/DX2                !
 ! D75   D(14,20,34,35)       -179.6998         estimate D2E/DX2                !
 ! D76   D(21,20,34,32)       -179.6624         estimate D2E/DX2                !
 ! D77   D(21,20,34,35)          0.3172         estimate D2E/DX2                !
 ! D78   D(9,22,30,31)         179.463          estimate D2E/DX2                !
 ! D79   D(9,22,30,36)          -0.5056         estimate D2E/DX2                !
 ! D80   D(23,22,30,31)         -0.5512         estimate D2E/DX2                !
 ! D81   D(23,22,30,36)        179.4802         estimate D2E/DX2                !
 ! D82   D(9,24,38,36)           0.7331         estimate D2E/DX2                !
 ! D83   D(9,24,38,39)        -179.3812         estimate D2E/DX2                !
 ! D84   D(25,24,38,36)       -179.3264         estimate D2E/DX2                !
 ! D85   D(25,24,38,39)          0.5594         estimate D2E/DX2                !
 ! D86   D(10,26,42,40)         -2.1864         estimate D2E/DX2                !
 ! D87   D(10,26,42,43)        177.8985         estimate D2E/DX2                !
 ! D88   D(27,26,42,40)        177.8845         estimate D2E/DX2                !
 ! D89   D(27,26,42,43)         -2.0306         estimate D2E/DX2                !
 ! D90   D(15,28,32,33)       -178.6995         estimate D2E/DX2                !
 ! D91   D(15,28,32,34)          1.2931         estimate D2E/DX2                !
 ! D92   D(29,28,32,33)          1.2967         estimate D2E/DX2                !
 ! D93   D(29,28,32,34)       -178.7107         estimate D2E/DX2                !
 ! D94   D(22,30,36,37)       -179.3119         estimate D2E/DX2                !
 ! D95   D(22,30,36,38)          0.7387         estimate D2E/DX2                !
 ! D96   D(31,30,36,37)          0.7196         estimate D2E/DX2                !
 ! D97   D(31,30,36,38)       -179.2298         estimate D2E/DX2                !
 ! D98   D(28,32,34,20)         -1.9882         estimate D2E/DX2                !
 ! D99   D(28,32,34,35)        178.0322         estimate D2E/DX2                !
 ! D100  D(33,32,34,20)        178.0044         estimate D2E/DX2                !
 ! D101  D(33,32,34,35)         -1.9752         estimate D2E/DX2                !
 ! D102  D(30,36,38,24)         -0.8517         estimate D2E/DX2                !
 ! D103  D(30,36,38,39)        179.2627         estimate D2E/DX2                !
 ! D104  D(37,36,38,24)        179.1989         estimate D2E/DX2                !
 ! D105  D(37,36,38,39)         -0.6867         estimate D2E/DX2                !
 ! D106  D(18,40,42,26)          2.2717         estimate D2E/DX2                !
 ! D107  D(18,40,42,43)       -177.8133         estimate D2E/DX2                !
 ! D108  D(41,40,42,26)       -177.68           estimate D2E/DX2                !
 ! D109  D(41,40,42,43)          2.235          estimate D2E/DX2                !
 --------------------------------------------------------------------------------
 Trust Radius=3.00D-01 FncErr=1.00D-07 GrdErr=1.00D-06 EigMax=2.50D+02 EigMin=1.00D-04
 Number of steps in this run=    247 maximum allowed number of steps=    282.
 GradGradGradGradGradGradGradGradGradGradGradGradGradGradGradGradGradGrad

                          Input orientation:                          
 ---------------------------------------------------------------------
 Center     Atomic      Atomic             Coordinates (Angstroms)
 Number     Number       Type             X           Y           Z
 ---------------------------------------------------------------------
      1         16           0        1.615400    3.579200    2.639800
      2          8           0        4.032200    6.303000    1.551600
      3          8           0        9.081100    7.346000    1.523100
      4          8           0        1.355700    2.186600    2.509200
      5          8           0        0.561100    4.512600    2.403500
      6          7           0        2.793000    4.029300    1.595800
      7          1           0        2.584000    4.952000    1.487900
      8          6           0        5.216600    4.248400    1.442700
      9          6           0        2.257900    3.870100    4.262600
     10          6           0        4.071800    3.428700    1.514400
     11          6           0        5.134900    5.730300    1.552700
     12          6           0        6.361500    6.534300    1.669800
     13          1           0        7.190800    6.128500    1.552000
     14          6           0        8.715100    8.625600    1.767300
     15          6           0        7.338900    8.849700    2.020900
     16          6           0        6.296900    7.837100    1.942000
     17          1           0        5.438900    8.153700    2.110800
     18          6           0        6.449700    3.606000    1.245800
     19          1           0        7.219300    4.123300    1.171200
     20          6           0        9.603000    9.690600    1.762700
     21          1           0       10.499900    9.542400    1.567700
     22          6           0        2.390900    2.841400    5.163700
     23          1           0        2.158400    1.971300    4.930800
     24          6           0        2.610000    5.164200    4.601000
     25          1           0        2.521700    5.852300    3.980800
     26          6           0        4.193400    2.050400    1.427700
     27          1           0        3.432700    1.515500    1.474800
     28          6           0        6.952600   10.157600    2.314900
     29          1           0        6.057700   10.329700    2.499400
     30          6           0        2.881700    3.130200    6.433100
     31          1           0        2.971300    2.447100    7.058600
     32          6           0        7.845900   11.203500    2.342400
     33          1           0        7.559700   12.061100    2.559600
     34          6           0        9.167800   10.962500    2.044300
     35          1           0        9.773200   11.668100    2.033600
     36          6           0        3.232900    4.409600    6.769400
     37          1           0        3.568700    4.589100    7.617400
     38          6           0        3.090600    5.425400    5.862500
     39          1           0        3.321200    6.295500    6.099400
     40          6           0        6.557600    2.246200    1.159400
     41          1           0        7.388100    1.848200    1.023300
     42          6           0        5.425300    1.469000    1.274600
     43          1           0        5.497100    0.542400    1.247100
     44          6           0       10.465300    7.072700    1.307300
     45          1           0       10.764100    7.534700    0.520800
     46          1           0       10.590700    6.128500    1.190800
     47          1           0       10.972500    7.371500    2.066300
 ---------------------------------------------------------------------
                    Distance matrix (angstroms):
                    1          2          3          4          5
     1  S    0.000000
     2  O    3.800551   0.000000
     3  O    8.436378   5.155585   0.000000
     4  O    1.422616   5.002539   9.342034   0.000000
     5  O    1.427803   3.997474   9.021843   2.460252   0.000000
     6  N    1.636847   2.589842   7.109570   2.509118   2.422258
     7  H    2.037066   1.981550   6.924217   3.193620   2.263519
     8  C    3.853507   2.374035   4.953378   4.504996   4.760947
     9  C    1.769437   4.051748   8.132822   2.592788   2.597728
    10  C    2.706118   2.874813   6.359120   3.147958   3.780258
    11  C    4.265665   1.242551   4.264253   5.268307   4.808981
    12  C    5.674415   2.343738   2.841936   6.683197   6.186293
    13  H    6.226341   3.163417   2.248639   7.106560   6.876708
    14  C    8.754036   5.231687   1.353132   9.806728   9.154738
    15  C    7.805105   4.200022   2.354608   8.968502   8.055768
    16  C    6.366559   2.763104   2.858046   7.527637   6.645652
    17  H    5.985403   2.390941   3.776691   7.241376   6.093949
    18  C    5.031343   3.634780   4.581349   5.436884   6.069415
    19  H    5.818636   3.879871   3.738439   6.318454   6.782459
    20  C   10.095557   6.523359   2.413905  11.175206  10.439266
    21  H   10.753766   7.233610   2.615178  11.773301  11.170371
    22  C    2.741500   5.265340   8.848964   2.923486   3.709418
    23  H    2.851118   5.804631   9.403382   2.560240   3.923878
    24  C    2.710675   3.552233   7.490584   3.849026   3.074342
    25  H    2.790456   2.895817   7.162203   4.118558   2.850723
    26  C    3.233033   4.257457   7.207086   3.039858   4.495355
    27  H    2.986413   4.825500   8.117973   2.415427   4.253373
    28  C    8.477418   4.895846   3.614216   9.741657   8.527904
    29  H    8.082264   4.606006   4.358506   9.403137   8.003778
    30  C    4.024207   5.934589   8.961787   4.314632   4.851174
    31  H    4.758772   6.805918   9.590132   4.834777   5.634298
    32  C    9.850763   6.259758   4.132466  11.111031   9.891420
    33  H   10.357788   6.827520   5.061735  11.661814  10.294883
    34  C   10.578586   6.951840   3.654892  11.758463  10.761297
    35  H   11.504238   7.872465   4.406831  12.687764  11.670510
    36  C    4.512147   5.607966   8.387345   5.158964   5.119591
    37  H    5.441671   6.320302   8.667615   6.063257   6.019656
    38  C    3.996306   4.498961   7.642329   4.974367   4.381353
    39  H    4.717719   4.603049   7.431186   5.799637   4.945358
    40  C    5.328585   4.794694   5.701604   5.374502   6.530112
    41  H    6.239671   5.602357   5.774241   6.221918   7.457339
    42  C    4.564214   5.038354   6.925731   4.312868   5.847936
    43  H    5.121461   5.951736   7.694817   4.631143   6.439243
    44  C    9.607332   6.483587   1.427330  10.406889  10.288292
    45  H   10.189939   6.920846   1.967918  11.003359  10.806427
    46  H    9.442168   6.570734   1.967644  10.127289  10.231063
    47  H   10.112654   7.040907   1.968022  10.934450  10.802049
                    6          7          8          9         10
     6  N    0.000000
     7  H    0.952207   0.000000
     8  C    2.438295   2.725377   0.000000
     9  C    2.724610   2.995965   4.104735   0.000000
    10  C    1.415159   2.129482   1.409828   3.322299   0.000000
    11  C    2.894781   2.667778   1.488221   4.368184   2.535549
    12  C    4.360584   4.099545   2.566653   5.537157   3.861558
    13  H    4.873315   4.755089   2.728404   6.064753   4.125348
    14  C    7.498443   7.152887   5.612909   8.398615   6.973662
    15  C    6.639441   6.171323   5.100043   7.459102   6.349624
    16  C    5.186185   4.723943   3.780888   6.118480   4.956602
    17  H    4.927138   4.334667   3.968267   5.753106   4.954824
    18  C    3.697721   4.100483   1.404273   5.171269   2.399581
    19  H    4.447612   4.719433   2.024888   5.851184   3.241452
    20  C    8.857442   8.473264   6.997174   9.699392   8.358661
    21  H    9.475831   9.150935   7.480329  10.361855   8.871338
    22  C    3.781891   4.243044   4.879556   1.374007   4.060509
    23  H    3.969925   4.573759   5.167651   2.015399   4.178146
    24  C    3.217563   3.120432   4.196178   1.383179   3.830916
    25  H    3.014160   2.651221   4.034468   2.019435   3.789429
    26  C    2.430108   3.318595   2.424534   3.885116   1.386367
    27  H    2.596738   3.539773   3.263751   3.833553   2.017511
    28  C    7.441467   6.845938   6.220376   8.084949   7.363281
    29  H    7.153307   6.481464   6.229468   7.698947   7.248298
    30  C    4.920947   5.278502   5.621941   2.376478   5.069423
    31  H    5.690108   6.120231   6.310657   3.217372   5.736967
    32  C    8.806722   8.215778   7.489733   9.417625   8.681989
    33  H    9.389364   8.743308   8.232610   9.904634   9.368896
    34  C    9.429130   8.932083   7.813645  10.147399   9.110881
    35  H   10.356936   9.853344   8.727183  11.056988  10.033107
    36  C    5.206177   5.348786   5.686368   2.743307   5.411187
    37  H    6.097110   6.218690   6.399888   3.672852   6.232676
    38  C    4.499154   4.429207   5.043792   2.381602   4.884213
    39  H    5.069228   4.859464   5.428445   3.222888   5.459319
    40  C    4.188329   4.818585   2.426385   5.545658   2.775524
    41  H    5.118584   5.738363   3.263781   6.395318   3.706347
    42  C    3.686097   4.499975   2.792289   4.972509   2.393719
    43  H    4.426310   5.290436   3.721744   5.537079   3.230117
    44  C    8.258917   8.163631   5.961867   9.292570   7.361961
    45  H    8.773932   8.632477   6.513403   9.989284   7.914124
    46  H    8.085468   8.098127   5.699051   9.163617   7.063264
    47  H    8.848497   8.749598   6.578223   9.645091   7.966801
                   11         12         13         14         15
    11  C    0.000000
    12  C    1.471284   0.000000
    13  H    2.094108   0.930746   0.000000
    14  C    4.609409   3.149996   2.933488   0.000000
    15  C    3.848049   2.537648   2.765272   1.417202   0.000000
    16  C    2.437295   1.332499   1.967351   2.549499   1.455111
    17  H    2.505346   1.915236   2.735479   3.327787   2.025462
    18  C    2.517049   2.960151   2.646884   5.531761   5.374742
    19  H    2.659458   2.607172   2.041237   4.781575   4.803660
    20  C    5.974278   4.525283   4.307164   1.386583   2.428977
    21  H    6.581455   5.117172   4.754482   2.016401   3.267590
    22  C    5.377230   6.450621   6.847514   9.218894   8.394020
    23  H    5.865253   7.008647   7.350078   9.862949   9.089416
    24  C    3.998465   4.954075   5.586591   7.568579   6.527045
    25  H    3.569225   4.533201   5.270280   7.137855   6.002585
    26  C    3.800488   4.986445   5.062683   7.987137   7.515087
    27  H    4.546217   5.814142   5.950550   8.862439   8.327491
    28  C    4.846232   3.727446   4.107603   2.398603   1.395086
    29  H    4.785633   3.896869   4.453264   3.240633   2.015152
    30  C    5.971242   6.810722   7.168213   9.273493   8.488040
    31  H    6.765760   7.565568   7.853632   9.958060   9.243789
    32  C    6.158658   4.945428   5.177790   2.780615   2.429153
    33  H    6.853651   5.724766   6.028855   3.710168   3.263746
    34  C    6.624339   5.255904   5.245803   2.396407   2.794521
    35  H    7.550004   6.174783   6.130897   3.232228   3.724158
    36  C    5.707522   6.348890   6.770587   8.535232   7.689082
    37  H    6.366781   6.852553   7.230383   8.775103   7.980472
    38  C    4.779802   5.432051   5.990526   7.658129   6.673213
    39  H    4.927620   5.377900   5.973319   7.300042   6.268972
    40  C    3.783875   4.322819   3.953142   6.761737   6.705134
    41  H    4.519721   4.840599   4.317339   6.946050   7.072385
    42  C    4.280228   5.166229   4.990479   7.891924   7.661172
    43  H    5.209500   6.068668   5.845177   8.715747   8.544134
    44  C    5.502311   4.154811   3.416686   2.384596   3.666242
    45  H    6.000714   4.658743   3.976084   2.634810   3.963776
    46  H    5.482270   4.275541   3.419033   3.175805   4.320671
    47  H    6.085630   4.703131   4.013827   2.599620   3.923033
                   16         17         18         19         20
    16  C    0.000000
    17  H    0.929996   0.000000
    18  C    4.290717   4.738303   0.000000
    19  H    3.903494   4.505197   0.930295   0.000000
    20  C    3.794458   4.452299   6.872615   6.084959   0.000000
    21  H    4.551193   5.276094   7.193649   6.347141   0.929741
    22  C    7.112890   6.843320   5.692839   6.395058  10.511552
    23  H    7.776099   7.545605   5.887846   6.661712  11.182420
    24  C    5.273320   4.810497   5.331852   5.838891   8.800358
    25  H    4.727396   4.159735   5.287275   5.740273   8.354479
    26  C    6.178601   6.266432   2.746610   3.676789   9.367425
    27  H    6.955900   6.963838   3.677624   4.607725  10.246353
    28  C    2.440024   2.519635   6.657278   6.147516   2.747296
    29  H    2.565339   2.295408   6.850790   6.452351   3.677000
    30  C    7.347685   7.103316   6.313881   6.891198  10.489393
    31  H    8.141948   7.945757   6.872478   7.450948  11.157701
    32  C    3.727247   3.892116   7.802174   7.203719   2.390046
    33  H    4.451772   4.468444   8.628261   8.065494   3.229457
    34  C    4.245074   4.668884   7.883131   7.164748   1.373473
    35  H    5.173936   5.580602   8.755783   8.011875   2.003213
    36  C    6.666307   6.370814   6.442339   6.878459   9.671307
    37  H    7.085390   6.821046   7.061440   7.422759   9.834409
    38  C    5.609543   5.199364   5.992302   6.383567   8.798389
    39  H    5.339972   4.883287   6.370114   6.648368   8.354321
    40  C    5.651424   6.087299   1.366808   1.990349   8.065824
    41  H    6.156432   6.688899   2.004984   2.286143   8.182648
    42  C    6.462028   6.736812   2.370020   3.205376   9.235049
    43  H    7.371242   7.660369   3.208285   3.974239  10.040609
    44  C    4.285173   5.203736   5.305359   4.387938   2.793627
    45  H    4.697567   5.591871   5.879996   4.962487   2.745610
    46  H    4.681916   5.611495   4.849115   3.922697   3.740478
    47  H    4.700369   5.588788   5.942048   5.043661   2.710337
                   21         22         23         24         25
    21  H    0.000000
    22  C   11.117126   0.000000
    23  H   11.756386   0.930254   0.000000
    24  C    9.519457   2.400007   3.241500   0.000000
    25  H    9.115457   3.237573   4.012063   0.930552   0.000000
    26  C    9.793958   4.222841   4.052060   4.719400   4.875176
    27  H   10.695096   4.056025   3.711540   4.874728   5.090952
    28  C    3.676971   9.080284   9.840874   7.001319   6.398727
    29  H    4.606631   8.753202   9.538296   6.556352   5.894485
    30  C   11.082662   1.391282   2.030546   2.750921   3.681468
    31  H   11.712091   2.020639   2.326956   3.681436   4.611982
    32  C    3.225388  10.375041  11.148138   8.305966   7.724429
    33  H    3.996560  10.885803  11.687630   8.731213   8.120988
    34  C    2.004575  11.027660  11.760325   9.119306   8.604349
    35  H    2.294288  11.925037  12.665184  10.010179   9.497335
    36  C   10.305950   2.397183   3.237330   2.378946   3.219236
    37  H   10.448712   3.234550   4.007448   3.216911   3.989579
    38  C    9.502248   2.766759   3.697008   1.374985   2.011638
    39  H    9.089136   3.697540   4.627789   2.007697   2.307399
    40  C    8.303191   5.809481   5.801033   5.995238   6.103503
    41  H    8.317475   6.565163   6.529431   6.828326   6.961427
    42  C    9.540297   5.120172   4.928767   5.713611   5.913352
    43  H   10.301980   5.502148   5.172844   6.398830   6.672418
    44  C    2.483631   9.898063  10.399934   8.729065   8.469815
    45  H    2.279619  10.662742  11.156056   9.421075   9.096111
    46  H    3.435842   9.686366  10.117984   8.732177   8.542198
    47  H    2.277007  10.186243  10.726410   9.012674   8.797119
                   26         27         28         29         30
    26  C    0.000000
    27  H    0.931129   0.000000
    28  C    8.609704   9.369171   0.000000
    29  H    8.554003   9.253678   0.929787   0.000000
    30  C    5.285883   5.243624   9.105830   8.797373   0.000000
    31  H    5.775633   5.679753   9.889654   9.614965   0.930540
    32  C    9.897306  10.681124   1.375735   1.996456  10.322562
    33  H   10.622019  11.376230   2.012899   2.292896  10.800401
    34  C   10.224988  11.066233   2.372383   3.206287  10.959997
    35  H   11.135593  11.982883   3.211935   3.976585  11.821341
    36  C    5.917951   6.037261   8.168124   7.826875   1.368687
    37  H    6.719199   6.870011   8.400921   8.083535   2.000731
    38  C    5.681042   5.886957   7.063585   6.645772   2.374272
    39  H    6.372314   6.651899   6.513472   6.059967   3.213042
    40  C    2.387418   3.224655   8.005089   8.209048   6.488883
    41  H    3.226536   3.994963   8.420452   8.711181   7.156612
    42  C    1.370782   2.003172   8.882941   8.967278   5.986619
    43  H    2.001578   2.293582   9.783187   9.883004   6.358586
    44  C    8.035840   8.964820   4.782356   5.608573   9.966349
    45  H    8.606632   9.533641   4.962452   5.820402  10.792921
    46  H    7.590288   8.520410   5.543737   6.317484   9.792864
    47  H    8.641650   9.565103   4.897321   5.752720  10.125148
                   31         32         33         34         35
    31  H    0.000000
    32  C   11.076047   0.000000
    33  H   11.563884   0.929819   0.000000
    34  C   11.664127   1.376359   2.014557   0.000000
    35  H   12.511727   2.006414   2.308832   0.929782   0.000000
    36  C    2.000869   9.329264   9.746233  10.024475  10.857677
    37  H    2.292882   9.479997   9.866114  10.150349  10.944719
    38  C    3.211722   8.269850   8.655317   9.064794   9.914077
    39  H    3.981542   7.660054   7.983559   8.509257   9.328658
    40  C    6.906697   9.126469   9.964789   9.141667   9.993824
    41  H    7.502776   9.458924  10.329230   9.342389  10.155779
    42  C    6.358730  10.087616  10.881152  10.233537  11.113143
    43  H    6.616727  10.971581  11.775289  11.076464  11.945075
    44  C   10.518254   4.999620   5.907191   4.166200   4.703639
    45  H   11.373400   5.029335   5.908738   4.076646   4.511701
    46  H   10.297526   5.883514   6.801200   5.110838   5.662666
    47  H   10.639172   4.953391   5.820902   4.019043   4.460960
                   36         37         38         39         40
    36  C    0.000000
    37  H    0.929562   0.000000
    38  C    1.369148   2.001912   0.000000
    39  H    2.003326   2.297255   0.930791   0.000000
    40  C    6.870664   7.491893   6.651808   7.160637   0.000000
    41  H    7.539504   8.098303   7.394777   7.879400   0.930944
    42  C    6.606555   7.308427   6.492515   7.141501   1.378192
    43  H    7.111795   7.789431   7.137006   7.834380   2.008802
    44  C    9.446388   9.672059   8.823245   8.637501   6.211851
    45  H   10.272791  10.526731   9.584650   9.383664   6.787539
    46  H    9.392157   9.642584   8.864008   8.773134   5.598137
    47  H    9.528558   9.662956   8.962298   8.715851   6.825138
                   41         42         43         44         45
    41  H    0.000000
    42  C    2.014827   0.000000
    43  H    2.308913   0.929784   0.000000
    44  C    6.070026   7.536851   8.205575   0.000000
    45  H    6.632207   8.115646   8.784137   0.959848   0.000000
    46  H    5.348427   6.956962   7.559924   0.959589   1.567280
    47  H    6.666529   8.138656   8.791342   0.960528   1.568004
                   46         47
    46  H    0.000000
    47  H    1.567584   0.000000
 Stoichiometry    C22H19NO4S
 Framework group  C1[X(C22H19NO4S)]
 Deg. of freedom   135
 Full point group                 C1      NOp   1
 Largest Abelian subgroup         C1      NOp   1
 Largest concise Abelian subgroup C1      NOp   1
                         Standard orientation:                         
 ---------------------------------------------------------------------
 Center     Atomic      Atomic             Coordinates (Angstroms)
 Number     Number       Type             X           Y           Z
 ---------------------------------------------------------------------
      1         16           0        3.773295   -0.321276   -1.106328
      2          8           0        0.007743   -0.333862   -1.620769
      3          8           0       -4.318832    1.226946    0.708324
      4          8           0        4.869547    0.543716   -0.834561
      5          8           0        3.858771   -1.236989   -2.198475
      6          7           0        2.430619    0.559508   -1.423675
      7          1           0        1.941091   -0.058953   -1.957124
      8          6           0        0.516522    1.577471   -0.307760
      9          6           0        3.421924   -1.243624    0.362250
     10          6           0        1.901149    1.558384   -0.572450
     11          6           0       -0.398652    0.518098   -0.812722
     12          6           0       -1.795969    0.464886   -0.355172
     13          1           0       -2.140589    1.163898    0.153658
     14          6           0       -4.869145    0.089089    0.225207
     15          6           0       -3.984836   -0.817877   -0.410302
     16          6           0       -2.572772   -0.573244   -0.662447
     17          1           0       -2.138134   -1.259341   -1.115497
     18          6           0        0.026196    2.655596    0.446700
     19          1           0       -0.886938    2.706709    0.617059
     20          6           0       -6.221520   -0.204580    0.311528
     21          1           0       -6.801982    0.406518    0.704009
     22          6           0        4.186013   -1.087219    1.493444
     23          1           0        4.892927   -0.482781    1.510772
     24          6           0        2.364510   -2.134832    0.333845
     25          1           0        1.849657   -2.228226   -0.435655
     26          6           0        2.722559    2.553924   -0.066289
     27          1           0        3.635957    2.535283   -0.246171
     28          6           0       -4.530229   -2.014073   -0.877128
     29          1           0       -3.969211   -2.633111   -1.285241
     30          6           0        3.878510   -1.853330    2.613347
     31          1           0        4.390071   -1.765908    3.385724
     32          6           0       -5.867634   -2.313182   -0.756592
     33          1           0       -6.197070   -3.127272   -1.062033
     34          6           0       -6.710011   -1.391268   -0.177939
     35          1           0       -7.619734   -1.573522   -0.117259
     36          6           0        2.831211   -2.734148    2.588262
     37          1           0        2.629112   -3.233806    3.345615
     38          6           0        2.081361   -2.882688    1.452380
     39          1           0        1.376561   -3.490466    1.437049
     40          6           0        0.845075    3.633021    0.938881
     41          1           0        0.490924    4.339002    1.431655
     42          6           0        2.200383    3.564783    0.698262
     43          1           0        2.765515    4.210408    1.056444
     44          6           0       -5.168767    2.145430    1.394815
     45          1           0       -5.840766    2.471697    0.792092
     46          1           0       -4.646979    2.881671    1.721156
     47          1           0       -5.590568    1.699876    2.133855
 ---------------------------------------------------------------------
 Rotational constants (GHZ):           0.2810739           0.0860606           0.0769826
 Standard basis: 6-311++G(d,p) (5D, 7F)
 There are   785 symmetry adapted cartesian basis functions of A   symmetry.
 There are   757 symmetry adapted basis functions of A   symmetry.
   757 basis functions,  1193 primitive gaussians,   785 cartesian basis functions
   103 alpha electrons      103 beta electrons
       nuclear repulsion energy      2683.1526064386 Hartrees.
 NAtoms=   47 NActive=   47 NUniq=   47 SFac= 1.00D+00 NAtFMM=   60 NAOKFM=F Big=F
 Integral buffers will be    131072 words long.
 Raffenetti 2 integral format.
 Two-electron integral symmetry is turned on.
 R6APFD:  NTU= -4 IXU= 1 FactS= 1.050
 Nuclear repulsion after empirical dispersion term =     2683.1088029220 Hartrees.
 One-electron integrals computed using PRISM.
 NBasis=   757 RedAO= T EigKep=  1.23D-06  NBF=   757
 NBsUse=   749 1.00D-06 EigRej=  8.78D-07 NBFU=   749
 ExpMin= 3.60D-02 ExpMax= 9.34D+04 ExpMxC= 3.17D+03 IAcc=3 IRadAn=         5 AccDes= 0.00D+00
 Harris functional with IExCor= 1009 and IRadAn=       5 diagonalized for initial guess.
 HarFok:  IExCor= 1009 AccDes= 0.00D+00 IRadAn=         5 IDoV= 1 UseB2=F ITyADJ=14
 ICtDFT=  3500011 ScaDFX=  1.000000  1.000000  1.000000  1.000000
 FoFCou: FMM=F IPFlag=           0 FMFlag=      100000 FMFlg1=           0
         NFxFlg=           0 DoJE=T BraDBF=F KetDBF=T FulRan=T
         wScrn=  0.000000 ICntrl=       500 IOpCl=  0 I1Cent=   200000004 NGrid=           0
         NMat0=    1 NMatS0=      1 NMatT0=    0 NMatD0=    1 NMtDS0=    0 NMtDT0=    0
 Petite list used in FoFCou.
 Requested convergence on RMS density matrix=1.00D-08 within  32 cycles.
 Requested convergence on MAX density matrix=1.00D-06.
 Requested convergence on             energy=1.00D-06.
 No special actions if energy rises.
 SCF Done:  E(RM08HX) =  -1603.12060303     A.U. after   16 cycles
            NFock= 16  Conv=0.72D-08     -V/T= 1.9998
 QCSCF skips out because SCF is already converged.

 **********************************************************************

            Population analysis using the SCF Density.

 **********************************************************************

 Orbital symmetries:
       Occupied  (A) (A) (A) (A) (A) (A) (A) (A) (A) (A) (A) (A)
                 (A) (A) (A) (A) (A) (A) (A) (A) (A) (A) (A) (A)
                 (A) (A) (A) (A) (A) (A) (A) (A) (A) (A) (A) (A)
                 (A) (A) (A) (A) (A) (A) (A) (A) (A) (A) (A) (A)
                 (A) (A) (A) (A) (A) (A) (A) (A) (A) (A) (A) (A)
                 (A) (A) (A) (A) (A) (A) (A) (A) (A) (A) (A) (A)
                 (A) (A) (A) (A) (A) (A) (A) (A) (A) (A) (A) (A)
                 (A) (A) (A) (A) (A) (A) (A) (A) (A) (A) (A) (A)
                 (A) (A) (A) (A) (A) (A) (A)
       Virtual   (A) (A) (A) (A) (A) (A) (A) (A) (A) (A) (A) (A)
                 (A) (A) (A) (A) (A) (A) (A) (A) (A) (A) (A) (A)
                 (A) (A) (A) (A) (A) (A) (A) (A) (A) (A) (A) (A)
                 (A) (A) (A) (A) (A) (A) (A) (A) (A) (A) (A) (A)
                 (A) (A) (A) (A) (A) (A) (A) (A) (A) (A) (A) (A)
                 (A) (A) (A) (A) (A) (A) (A) (A) (A) (A) (A) (A)
                 (A) (A) (A) (A) (A) (A) (A) (A) (A) (A) (A) (A)
                 (A) (A) (A) (A) (A) (A) (A) (A) (A) (A) (A) (A)
                 (A) (A) (A) (A) (A) (A) (A) (A) (A) (A) (A) (A)
                 (A) (A) (A) (A) (A) (A) (A) (A) (A) (A) (A) (A)
                 (A) (A) (A) (A) (A) (A) (A) (A) (A) (A) (A) (A)
                 (A) (A) (A) (A) (A) (A) (A) (A) (A) (A) (A) (A)
                 (A) (A) (A) (A) (A) (A) (A) (A) (A) (A) (A) (A)
                 (A) (A) (A) (A) (A) (A) (A) (A) (A) (A) (A) (A)
                 (A) (A) (A) (A) (A) (A) (A) (A) (A) (A) (A) (A)
                 (A) (A) (A) (A) (A) (A) (A) (A) (A) (A) (A) (A)
                 (A) (A) (A) (A) (A) (A) (A) (A) (A) (A) (A) (A)
                 (A) (A) (A) (A) (A) (A) (A) (A) (A) (A) (A) (A)
                 (A) (A) (A) (A) (A) (A) (A) (A) (A) (A) (A) (A)
                 (A) (A) (A) (A) (A) (A) (A) (A) (A) (A) (A) (A)
                 (A) (A) (A) (A) (A) (A) (A) (A) (A) (A) (A) (A)
                 (A) (A) (A) (A) (A) (A) (A) (A) (A) (A) (A) (A)
                 (A) (A) (A) (A) (A) (A) (A) (A) (A) (A) (A) (A)
                 (A) (A) (A) (A) (A) (A) (A) (A) (A) (A) (A) (A)
                 (A) (A) (A) (A) (A) (A) (A) (A) (A) (A) (A) (A)
                 (A) (A) (A) (A) (A) (A) (A) (A) (A) (A) (A) (A)
                 (A) (A) (A) (A) (A) (A) (A) (A) (A) (A) (A) (A)
                 (A) (A) (A) (A) (A) (A) (A) (A) (A) (A) (A) (A)
                 (A) (A) (A) (A) (A) (A) (A) (A) (A) (A) (A) (A)
                 (A) (A) (A) (A) (A) (A) (A) (A) (A) (A) (A) (A)
                 (A) (A) (A) (A) (A) (A) (A) (A) (A) (A) (A) (A)
                 (A) (A) (A) (A) (A) (A) (A) (A) (A) (A) (A) (A)
                 (A) (A) (A) (A) (A) (A) (A) (A) (A) (A) (A) (A)
                 (A) (A) (A) (A) (A) (A) (A) (A) (A) (A) (A) (A)
                 (A) (A) (A) (A) (A) (A) (A) (A) (A) (A) (A) (A)
                 (A) (A) (A) (A) (A) (A) (A) (A) (A) (A) (A) (A)
                 (A) (A) (A) (A) (A) (A) (A) (A) (A) (A) (A) (A)
                 (A) (A) (A) (A) (A) (A) (A) (A) (A) (A) (A) (A)
                 (A) (A) (A) (A) (A) (A) (A) (A) (A) (A) (A) (A)
                 (A) (A) (A) (A) (A) (A) (A) (A) (A) (A) (A) (A)
                 (A) (A) (A) (A) (A) (A) (A) (A) (A) (A) (A) (A)
                 (A) (A) (A) (A) (A) (A) (A) (A) (A) (A) (A) (A)
                 (A) (A) (A) (A) (A) (A) (A) (A) (A) (A) (A) (A)
                 (A) (A) (A) (A) (A) (A) (A) (A) (A) (A) (A) (A)
                 (A) (A) (A) (A) (A) (A) (A) (A) (A) (A) (A) (A)
                 (A) (A) (A) (A) (A) (A) (A) (A) (A) (A) (A) (A)
                 (A) (A) (A) (A) (A) (A) (A) (A) (A) (A) (A) (A)
                 (A) (A) (A) (A) (A) (A) (A) (A) (A) (A) (A) (A)
                 (A) (A) (A) (A) (A) (A) (A) (A) (A) (A) (A) (A)
                 (A) (A) (A) (A) (A) (A) (A) (A) (A) (A) (A) (A)
                 (A) (A) (A) (A) (A) (A) (A) (A) (A) (A) (A) (A)
                 (A) (A) (A) (A) (A) (A) (A) (A) (A) (A) (A) (A)
                 (A) (A) (A) (A) (A) (A) (A) (A) (A) (A) (A) (A)
                 (A) (A) (A) (A) (A) (A) (A) (A) (A) (A)
 The electronic state is 1-A.
 Alpha  occ. eigenvalues --  -90.07631 -19.66274 -19.60124 -19.59566 -19.59398
 Alpha  occ. eigenvalues --  -14.76907 -10.63438 -10.61802 -10.60739 -10.56870
 Alpha  occ. eigenvalues --  -10.56242 -10.56070 -10.55849 -10.54256 -10.53886
 Alpha  occ. eigenvalues --  -10.53704 -10.53539 -10.53396 -10.53375 -10.53367
 Alpha  occ. eigenvalues --  -10.53101 -10.52940 -10.52820 -10.52818 -10.52728
 Alpha  occ. eigenvalues --  -10.52582 -10.52267 -10.52125  -8.41398  -6.36312
 Alpha  occ. eigenvalues --   -6.36272  -6.36133  -1.26250  -1.21495  -1.16431
 Alpha  occ. eigenvalues --   -1.13380  -1.06993  -1.00313  -0.99888  -0.99152
 Alpha  occ. eigenvalues --   -0.93766  -0.90210  -0.90066  -0.89578  -0.88840
 Alpha  occ. eigenvalues --   -0.88096  -0.87672  -0.84499  -0.78799  -0.77334
 Alpha  occ. eigenvalues --   -0.75236  -0.74535  -0.74152  -0.73556  -0.70876
 Alpha  occ. eigenvalues --   -0.69852  -0.67489  -0.66677  -0.65420  -0.64246
 Alpha  occ. eigenvalues --   -0.62552  -0.61809  -0.59836  -0.59401  -0.59109
 Alpha  occ. eigenvalues --   -0.58299  -0.57039  -0.56368  -0.56073  -0.55959
 Alpha  occ. eigenvalues --   -0.55404  -0.54693  -0.53457  -0.53271  -0.52532
 Alpha  occ. eigenvalues --   -0.51644  -0.51323  -0.50135  -0.48966  -0.48063
 Alpha  occ. eigenvalues --   -0.47188  -0.47047  -0.46939  -0.46491  -0.45671
 Alpha  occ. eigenvalues --   -0.45466  -0.45233  -0.44532  -0.42406  -0.42299
 Alpha  occ. eigenvalues --   -0.41740  -0.40603  -0.39824  -0.38380  -0.38144
 Alpha  occ. eigenvalues --   -0.37949  -0.34076  -0.33431  -0.33224  -0.32958
 Alpha  occ. eigenvalues --   -0.31669  -0.29971  -0.28748
 Alpha virt. eigenvalues --   -0.07131  -0.03936  -0.02773  -0.02646  -0.02169
 Alpha virt. eigenvalues --   -0.01759  -0.01621  -0.01471  -0.00525  -0.00457
 Alpha virt. eigenvalues --   -0.00381  -0.00152   0.00062   0.00084   0.00642
 Alpha virt. eigenvalues --    0.01008   0.01318   0.01401   0.01764   0.02275
 Alpha virt. eigenvalues --    0.02723   0.02901   0.03413   0.03423   0.04015
 Alpha virt. eigenvalues --    0.04136   0.04395   0.04983   0.05099   0.05605
 Alpha virt. eigenvalues --    0.05848   0.06194   0.06964   0.07154   0.07318
 Alpha virt. eigenvalues --    0.07732   0.07958   0.08262   0.08556   0.08850
 Alpha virt. eigenvalues --    0.09030   0.09411   0.09657   0.09827   0.10175
 Alpha virt. eigenvalues --    0.10470   0.10552   0.11064   0.11197   0.11227
 Alpha virt. eigenvalues --    0.11452   0.11498   0.11634   0.11875   0.12034
 Alpha virt. eigenvalues --    0.12194   0.12546   0.12642   0.12819   0.13010
 Alpha virt. eigenvalues --    0.13415   0.13677   0.13692   0.13891   0.14091
 Alpha virt. eigenvalues --    0.14478   0.14648   0.14804   0.15123   0.15375
 Alpha virt. eigenvalues --    0.15462   0.15615   0.16029   0.16121   0.16203
 Alpha virt. eigenvalues --    0.16515   0.16588   0.16776   0.17005   0.17426
 Alpha virt. eigenvalues --    0.17526   0.18003   0.18135   0.18399   0.18657
 Alpha virt. eigenvalues --    0.18848   0.18999   0.19354   0.19554   0.19768
 Alpha virt. eigenvalues --    0.19993   0.20636   0.20710   0.21040   0.21081
 Alpha virt. eigenvalues --    0.21475   0.21865   0.22247   0.22437   0.22685
 Alpha virt. eigenvalues --    0.23006   0.23201   0.23290   0.23509   0.24105
 Alpha virt. eigenvalues --    0.24135   0.24286   0.24594   0.24964   0.25262
 Alpha virt. eigenvalues --    0.25496   0.25804   0.26163   0.26450   0.26824
 Alpha virt. eigenvalues --    0.27099   0.27326   0.27705   0.27933   0.28621
 Alpha virt. eigenvalues --    0.28717   0.29089   0.30008   0.30090   0.30217
 Alpha virt. eigenvalues --    0.30473   0.31003   0.31573   0.31681   0.31989
 Alpha virt. eigenvalues --    0.32187   0.32349   0.32925   0.33131   0.33317
 Alpha virt. eigenvalues --    0.33580   0.33747   0.33855   0.34259   0.34778
 Alpha virt. eigenvalues --    0.35053   0.35203   0.35828   0.36006   0.36231
 Alpha virt. eigenvalues --    0.36285   0.36927   0.37306   0.37529   0.37689
 Alpha virt. eigenvalues --    0.37875   0.38192   0.38377   0.38706   0.39248
 Alpha virt. eigenvalues --    0.39299   0.39901   0.40077   0.40779   0.41144
 Alpha virt. eigenvalues --    0.41216   0.41904   0.41983   0.42283   0.42512
 Alpha virt. eigenvalues --    0.43141   0.43871   0.44297   0.44948   0.46211
 Alpha virt. eigenvalues --    0.47531   0.47608   0.48249   0.48756   0.49093
 Alpha virt. eigenvalues --    0.49806   0.50402   0.51575   0.52210   0.52634
 Alpha virt. eigenvalues --    0.54728   0.55122   0.55632   0.56421   0.56954
 Alpha virt. eigenvalues --    0.57282   0.58081   0.58290   0.58928   0.59325
 Alpha virt. eigenvalues --    0.59457   0.59737   0.59887   0.60192   0.60419
 Alpha virt. eigenvalues --    0.61131   0.61478   0.61844   0.61938   0.62338
 Alpha virt. eigenvalues --    0.62516   0.62968   0.63151   0.63655   0.64348
 Alpha virt. eigenvalues --    0.64666   0.64953   0.65478   0.66006   0.66672
 Alpha virt. eigenvalues --    0.66745   0.66914   0.67215   0.68471   0.69010
 Alpha virt. eigenvalues --    0.69572   0.69642   0.70446   0.71077   0.71694
 Alpha virt. eigenvalues --    0.72277   0.72619   0.73333   0.73817   0.74068
 Alpha virt. eigenvalues --    0.74427   0.74873   0.75519   0.76114   0.76374
 Alpha virt. eigenvalues --    0.76582   0.77225   0.77744   0.78173   0.78250
 Alpha virt. eigenvalues --    0.78621   0.79075   0.79416   0.80274   0.80945
 Alpha virt. eigenvalues --    0.81421   0.81545   0.82014   0.82314   0.82614
 Alpha virt. eigenvalues --    0.83552   0.84954   0.85377   0.85987   0.86296
 Alpha virt. eigenvalues --    0.86950   0.87099   0.87729   0.88020   0.88463
 Alpha virt. eigenvalues --    0.88635   0.89246   0.89384   0.89822   0.90052
 Alpha virt. eigenvalues --    0.91315   0.91870   0.92546   0.93720   0.94201
 Alpha virt. eigenvalues --    0.94373   0.94984   0.95432   0.95785   0.96498
 Alpha virt. eigenvalues --    0.97165   0.98181   0.98922   0.99308   1.00106
 Alpha virt. eigenvalues --    1.00641   1.01237   1.01878   1.02288   1.02684
 Alpha virt. eigenvalues --    1.03050   1.03342   1.03797   1.04993   1.05512
 Alpha virt. eigenvalues --    1.05771   1.06311   1.06832   1.07241   1.07263
 Alpha virt. eigenvalues --    1.08445   1.08691   1.09115   1.10037   1.10411
 Alpha virt. eigenvalues --    1.10614   1.11653   1.12656   1.12787   1.13686
 Alpha virt. eigenvalues --    1.13850   1.14483   1.14651   1.15275   1.16259
 Alpha virt. eigenvalues --    1.17005   1.17841   1.18306   1.19174   1.19575
 Alpha virt. eigenvalues --    1.20215   1.21530   1.21735   1.22627   1.23782
 Alpha virt. eigenvalues --    1.24300   1.25998   1.26623   1.27765   1.28261
 Alpha virt. eigenvalues --    1.29615   1.29741   1.30327   1.31262   1.31522
 Alpha virt. eigenvalues --    1.32750   1.33813   1.34358   1.34807   1.35087
 Alpha virt. eigenvalues --    1.36200   1.38271   1.39822   1.39913   1.41956
 Alpha virt. eigenvalues --    1.43106   1.45339   1.45999   1.50306   1.51935
 Alpha virt. eigenvalues --    1.52348   1.52974   1.54204   1.54530   1.55462
 Alpha virt. eigenvalues --    1.55730   1.56293   1.56887   1.57903   1.58293
 Alpha virt. eigenvalues --    1.59258   1.59899   1.60325   1.60585   1.62061
 Alpha virt. eigenvalues --    1.62775   1.63590   1.63960   1.64444   1.64576
 Alpha virt. eigenvalues --    1.65093   1.65209   1.65829   1.66683   1.66814
 Alpha virt. eigenvalues --    1.68627   1.70609   1.71099   1.71351   1.72129
 Alpha virt. eigenvalues --    1.72337   1.73109   1.74313   1.74714   1.75446
 Alpha virt. eigenvalues --    1.76306   1.77046   1.77566   1.78236   1.78656
 Alpha virt. eigenvalues --    1.79028   1.81787   1.81997   1.83167   1.83237
 Alpha virt. eigenvalues --    1.84465   1.84699   1.86465   1.86737   1.86926
 Alpha virt. eigenvalues --    1.87463   1.88045   1.88302   1.89036   1.89595
 Alpha virt. eigenvalues --    1.90066   1.91576   1.92219   1.92979   1.93888
 Alpha virt. eigenvalues --    1.94297   1.94881   1.96130   1.96789   1.97553
 Alpha virt. eigenvalues --    1.98833   1.99312   2.00235   2.00788   2.01033
 Alpha virt. eigenvalues --    2.01332   2.01598   2.02159   2.03058   2.03560
 Alpha virt. eigenvalues --    2.04196   2.05055   2.05621   2.05810   2.06071
 Alpha virt. eigenvalues --    2.07208   2.08606   2.09182   2.10562   2.11091
 Alpha virt. eigenvalues --    2.13147   2.14166   2.15027   2.15616   2.16879
 Alpha virt. eigenvalues --    2.17670   2.18233   2.18735   2.18900   2.20193
 Alpha virt. eigenvalues --    2.20848   2.21721   2.22539   2.23536   2.24467
 Alpha virt. eigenvalues --    2.25224   2.28329   2.29075   2.32020   2.33174
 Alpha virt. eigenvalues --    2.35831   2.36913   2.37712   2.37936   2.38126
 Alpha virt. eigenvalues --    2.39743   2.40551   2.40692   2.41796   2.42431
 Alpha virt. eigenvalues --    2.42659   2.43628   2.44784   2.45080   2.46217
 Alpha virt. eigenvalues --    2.48036   2.48450   2.49482   2.49938   2.50400
 Alpha virt. eigenvalues --    2.54241   2.56008   2.58198   2.58497   2.60749
 Alpha virt. eigenvalues --    2.61256   2.63108   2.63593   2.67573   2.68265
 Alpha virt. eigenvalues --    2.69536   2.73806   2.74114   2.77621   2.78140
 Alpha virt. eigenvalues --    2.78555   2.79461   2.79863   2.80780   2.80893
 Alpha virt. eigenvalues --    2.81785   2.83734   2.83828   2.85970   2.86212
 Alpha virt. eigenvalues --    2.86716   2.88798   2.89766   2.90032   2.91068
 Alpha virt. eigenvalues --    2.91612   2.92202   2.93346   2.93824   2.94010
 Alpha virt. eigenvalues --    2.94764   2.94966   2.95038   2.95686   2.96636
 Alpha virt. eigenvalues --    2.97029   2.97761   2.98382   2.98818   2.98883
 Alpha virt. eigenvalues --    2.99901   3.00802   3.01761   3.02041   3.02268
 Alpha virt. eigenvalues --    3.02618   3.02823   3.04219   3.04592   3.05409
 Alpha virt. eigenvalues --    3.06005   3.06783   3.07839   3.08044   3.08639
 Alpha virt. eigenvalues --    3.11109   3.12451   3.13103   3.13527   3.15009
 Alpha virt. eigenvalues --    3.15640   3.16182   3.17488   3.17861   3.18070
 Alpha virt. eigenvalues --    3.18337   3.19818   3.20337   3.22162   3.25774
 Alpha virt. eigenvalues --    3.26136   3.27415   3.28331   3.29701   3.33265
 Alpha virt. eigenvalues --    3.33929   3.34931   3.36004   3.38525   3.41123
 Alpha virt. eigenvalues --    3.42432   3.42483   3.46316   3.48728   3.49186
 Alpha virt. eigenvalues --    3.50798   3.51848   3.52671   3.54748   3.57679
 Alpha virt. eigenvalues --    3.62573   3.65322   3.68969   3.69600   3.70953
 Alpha virt. eigenvalues --    3.71815   3.72043   3.73195   3.73510   3.74598
 Alpha virt. eigenvalues --    3.77591   3.81990   3.84010   3.89339   3.90525
 Alpha virt. eigenvalues --    3.91927   3.95606   4.05445   4.06546   4.09142
 Alpha virt. eigenvalues --    4.11840   4.19666   4.27921   4.28121   4.28416
 Alpha virt. eigenvalues --    4.32539   4.33000   4.33864   4.34900   4.35921
 Alpha virt. eigenvalues --    4.36261   4.40542   4.42535   4.43853   4.45429
 Alpha virt. eigenvalues --    4.47975   4.60857   4.73806   4.93373   4.94126
 Alpha virt. eigenvalues --    4.94974   5.14993   5.16161   5.22416   5.22762
 Alpha virt. eigenvalues --    5.24489   5.25842   5.26391   5.35723   5.48299
 Alpha virt. eigenvalues --    5.51824   5.59890   5.91069   5.93675   8.44879
 Alpha virt. eigenvalues --   17.59162  17.66132  17.82372  23.79044  23.81921
 Alpha virt. eigenvalues --   23.84619  23.92878  24.03909  24.05901  24.09191
 Alpha virt. eigenvalues --   24.11909  24.12534  24.12847  24.22727  24.23489
 Alpha virt. eigenvalues --   24.24268  24.29019  24.30822  24.31217  24.31981
 Alpha virt. eigenvalues --   24.33113  24.41368  24.42390  24.42994  24.43259
 Alpha virt. eigenvalues --   35.68986  49.94703  49.98004  49.99231  50.05988
 Alpha virt. eigenvalues --  189.26363
          Condensed to atoms (all electrons):
               1          2          3          4          5          6
     1  S   27.051097  -0.012276   0.000055   1.834218  -1.607951  -3.177109
     2  O   -0.012276   7.970524   0.000030  -0.000221   0.023564  -0.183891
     3  O    0.000055   0.000030   8.247443  -0.000000  -0.000000   0.000097
     4  O    1.834218  -0.000221  -0.000000   9.321226  -0.697431  -0.611400
     5  O   -1.607951   0.023564  -0.000000  -0.697431   9.431943   0.287239
     6  N   -3.177109  -0.183891   0.000097  -0.611400   0.287239  11.385937
     7  H    0.637289   0.065936  -0.000070   0.127006  -0.151474  -0.384421
     8  C   -0.925277  -0.111241  -0.073638   0.023223   0.285858  -0.224160
     9  C   -9.865733   0.090109   0.000914  -1.062414   0.756171   1.664954
    10  C   -1.370979   0.014695  -0.004029  -0.535584  -0.351237  -0.339077
    11  C   -0.993709   0.857002  -0.089067  -0.065116  -0.315050   2.288838
    12  C   -0.076096  -0.305029   0.035533  -0.002377  -0.077278   0.457563
    13  H    0.026408   0.004979  -0.061726   0.001834  -0.002590   0.003298
    14  C    0.015556  -0.005212   0.127108   0.000197  -0.000783  -0.004769
    15  C    0.000702  -0.013992  -0.208453   0.000136  -0.002413  -0.020569
    16  C    0.058035  -0.100419  -0.059006   0.004628  -0.033720   0.206379
    17  H   -0.030451   0.010989  -0.009885  -0.001792   0.003585   0.004733
    18  C    1.700668  -0.044163  -0.003388   0.125861   0.006895  -1.620664
    19  H   -0.027656  -0.006546   0.018554  -0.001987  -0.000396   0.007305
    20  C    0.000031  -0.004238   0.021161   0.000006  -0.000023  -0.000889
    21  H   -0.000039  -0.000038  -0.012440  -0.000000   0.000001  -0.000043
    22  C   -3.304694   0.058763   0.000156  -2.197238   1.118452   1.545006
    23  H   -0.129608  -0.000381   0.000002  -0.059727   0.009857  -0.007679
    24  C    4.302598  -0.061065  -0.000826   1.667096  -0.980379  -1.722739
    25  H   -0.452867   0.010636  -0.000082  -0.051698   0.109524   0.074780
    26  C    1.338084  -0.034461   0.000354   0.246022   0.332790  -1.831228
    27  H    0.134431  -0.005040  -0.000013   0.054730  -0.030731  -0.030616
    28  C    0.006316  -0.008173   0.053609   0.000013  -0.000108   0.011058
    29  H    0.002012  -0.001626  -0.001859   0.000035  -0.000218  -0.000294
    30  C   -1.042428   0.010276  -0.000050  -0.235186   0.326955   0.304595
    31  H    0.017070   0.000116  -0.000001   0.003154  -0.001065   0.001322
    32  C    0.002623   0.001408   0.048424   0.000001   0.000013   0.000905
    33  H   -0.000018   0.000109   0.001485  -0.000000   0.000002  -0.000032
    34  C   -0.000174   0.000126   0.006455   0.000000  -0.000005   0.000476
    35  H    0.000003   0.000002  -0.004968   0.000000  -0.000000   0.000008
    36  C    0.217730  -0.015840  -0.000038  -0.039478   0.001018  -0.041021
    37  H   -0.019138  -0.000073   0.000001  -0.001992   0.002381  -0.000735
    38  C    2.507661  -0.033099  -0.000204   0.313411  -0.533675  -0.836080
    39  H    0.032118   0.000578   0.000005   0.002789  -0.013296  -0.007932
    40  C    0.079245  -0.003317  -0.004603   0.005703   0.005260  -0.305529
    41  H   -0.000898  -0.000716  -0.000853   0.000370  -0.000059   0.000998
    42  C   -0.585684   0.033692   0.000811  -0.130200   0.062933   0.298422
    43  H   -0.026260   0.001263   0.000024  -0.007475   0.003477  -0.001693
    44  C    0.000238  -0.000094   0.198748  -0.000000   0.000001  -0.000360
    45  H   -0.000033   0.000033  -0.055071  -0.000000  -0.000000   0.000055
    46  H    0.000474  -0.000013  -0.036673   0.000000   0.000002  -0.000558
    47  H    0.000017  -0.000022  -0.066400   0.000001  -0.000001   0.000029
               7          8          9         10         11         12
     1  S    0.637289  -0.925277  -9.865733  -1.370979  -0.993709  -0.076096
     2  O    0.065936  -0.111241   0.090109   0.014695   0.857002  -0.305029
     3  O   -0.000070  -0.073638   0.000914  -0.004029  -0.089067   0.035533
     4  O    0.127006   0.023223  -1.062414  -0.535584  -0.065116  -0.002377
     5  O   -0.151474   0.285858   0.756171  -0.351237  -0.315050  -0.077278
     6  N   -0.384421  -0.224160   1.664954  -0.339077   2.288838   0.457563
     7  H    0.554226  -0.220664  -0.112213  -0.223541  -0.123075   0.054519
     8  C   -0.220664  34.920019  -3.204055   6.045416   5.017415  -9.754483
     9  C   -0.112213  -3.204055  51.333250  -3.297417   2.141971   1.800599
    10  C   -0.223541   6.045416  -3.297417  36.597451  -1.371555  -4.118616
    11  C   -0.123075   5.017415   2.141971  -1.371555  24.138479   0.578086
    12  C    0.054519  -9.754483   1.800599  -4.118616   0.578086  21.132334
    13  H    0.014642   0.010202  -0.022493  -0.033105  -0.005415   0.582290
    14  C    0.006938  -1.110876  -0.079298  -0.075871  -1.232784  -1.078806
    15  C    0.001246  -2.359849   0.224849   0.055016  -2.606892   1.372932
    16  C    0.066013  -5.365362   0.387717  -1.579235  -2.927326   7.024309
    17  H   -0.020342  -0.107277   0.008397   0.001175  -0.015983   0.068641
    18  C    0.044238  -8.906342  -2.094842  -7.201947  -8.100840  -2.571187
    19  H   -0.010286  -0.027513   0.056326  -0.322380  -0.228850   0.239746
    20  C    0.001258  -0.171585   0.001757   0.004688  -0.076295  -2.170575
    21  H   -0.000056   0.001797   0.000251   0.000888   0.013079  -0.030895
    22  C   -0.024576  -1.389741  -7.995389  -0.313981   0.646622   0.543237
    23  H   -0.000902  -0.020074   0.188849  -0.183387  -0.020159  -0.000042
    24  C   -0.071683   3.703555 -13.711586   0.287773  -1.684554  -1.716315
    25  H   -0.049695   0.144717   0.225368   0.085783   0.015416  -0.069821
    26  C    0.198926  -8.891619   1.118947 -15.336168  -6.609229   0.590375
    27  H    0.007388  -0.213937  -0.085853   0.245556  -0.034324  -0.014878
    28  C    0.002621  -0.471812   0.008951  -0.056711  -1.347529  -2.179786
    29  H    0.001708  -0.015078   0.001881  -0.000524  -0.037927  -0.089208
    30  C   -0.115357   0.685821  -6.257829   2.113970  -0.089930  -0.234299
    31  H    0.000153   0.006017  -0.118200   0.052266   0.005012  -0.001840
    32  C   -0.000974   0.062757  -0.020727  -0.008360   0.182979   0.366485
    33  H   -0.000095   0.001093  -0.000154   0.000367   0.012227   0.002633
    34  C    0.000433  -0.047658   0.001580  -0.009098  -0.317463  -0.059327
    35  H    0.000010  -0.001746   0.000018  -0.000123  -0.008847  -0.008557
    36  C    0.012927   0.014967  -0.383393  -0.171834  -0.151526  -0.014965
    37  H   -0.000699   0.001740   0.120569  -0.010752  -0.003355  -0.000096
    38  C    0.273215  -0.075306  -7.174089   0.032269   0.013958  -0.078125
    39  H    0.006851  -0.043037  -0.027506   0.001305   0.003672   0.025675
    40  C    0.012619  -3.648566  -0.511420  10.010362  -0.779673  -4.653637
    41  H    0.001193   0.033451  -0.005512   0.345576   0.050201  -0.097668
    42  C   -0.010505   0.564679   1.955524 -13.299568  -0.624563   0.973681
    43  H   -0.004701   0.150997  -0.004687  -0.339688  -0.032977   0.010397
    44  C   -0.000153  -0.029207  -0.000912   0.001320   0.005392  -0.063855
    45  H    0.000012   0.000924   0.000019   0.000142  -0.001241  -0.006378
    46  H   -0.000011  -0.024072  -0.000866   0.004547   0.006708  -0.001383
    47  H    0.000040  -0.002311  -0.000121  -0.001238  -0.005704  -0.016387
              13         14         15         16         17         18
     1  S    0.026408   0.015556   0.000702   0.058035  -0.030451   1.700668
     2  O    0.004979  -0.005212  -0.013992  -0.100419   0.010989  -0.044163
     3  O   -0.061726   0.127108  -0.208453  -0.059006  -0.009885  -0.003388
     4  O    0.001834   0.000197   0.000136   0.004628  -0.001792   0.125861
     5  O   -0.002590  -0.000783  -0.002413  -0.033720   0.003585   0.006895
     6  N    0.003298  -0.004769  -0.020569   0.206379   0.004733  -1.620664
     7  H    0.014642   0.006938   0.001246   0.066013  -0.020342   0.044238
     8  C    0.010202  -1.110876  -2.359849  -5.365362  -0.107277  -8.906342
     9  C   -0.022493  -0.079298   0.224849   0.387717   0.008397  -2.094842
    10  C   -0.033105  -0.075871   0.055016  -1.579235   0.001175  -7.201947
    11  C   -0.005415  -1.232784  -2.606892  -2.927326  -0.015983  -8.100840
    12  C    0.582290  -1.078806   1.372932   7.024309   0.068641  -2.571187
    13  H    0.909083  -0.063538  -0.116232   0.331155  -0.005576  -0.301678
    14  C   -0.063538  12.520172   1.261462   0.280472  -0.049232   0.062615
    15  C   -0.116232   1.261462  15.990820   2.812354  -0.070862  -0.532595
    16  C    0.331155   0.280472   2.812354  13.708731   0.439809  -1.748760
    17  H   -0.005576  -0.049232  -0.070862   0.439809   0.632022   0.047188
    18  C   -0.301678   0.062615  -0.532595  -1.748760   0.047188  30.870403
    19  H   -0.204654   0.004745   0.093271  -0.169954   0.008034   1.230101
    20  C   -0.203822  -2.275285  -5.582839  -3.521114  -0.127125  -0.075813
    21  H   -0.001211  -0.178148  -0.186612  -0.075338  -0.000308  -0.000554
    22  C   -0.016333  -0.023860   0.057436  -0.026082  -0.015138  -0.879346
    23  H   -0.000339  -0.000136   0.000158  -0.002604  -0.000114   0.012858
    24  C   -0.001049   0.028676  -0.207335  -0.313567   0.077719   1.657006
    25  H   -0.007846  -0.009909  -0.009957  -0.075990   0.002705  -0.013475
    26  C   -0.179187   0.022698   0.161065  -0.507820  -0.015497  11.195652
    27  H   -0.000027   0.000441  -0.000891   0.003256  -0.000209   0.212555
    28  C    0.007651  -0.247975  -3.902858  -3.577124  -0.089739   0.040343
    29  H   -0.009997   0.049231  -0.061325  -0.161025  -0.043614  -0.009290
    30  C    0.003168  -0.000685  -0.022585  -0.035336   0.010023  -0.212715
    31  H    0.000384  -0.000099  -0.000267   0.000083   0.000047  -0.004853
    32  C    0.068343   0.485404  -2.846424   0.425579   0.061934   0.075920
    33  H    0.001162   0.011359  -0.014535   0.010288   0.006211   0.001095
    34  C   -0.026768  -2.387326   2.468941   0.135575   0.015373  -0.035464
    35  H   -0.001733   0.062475   0.096288   0.011905   0.000052  -0.000566
    36  C    0.002328   0.017749   0.000781  -0.004122  -0.012293   0.061476
    37  H   -0.000738  -0.000139   0.001075  -0.003197  -0.000004   0.000023
    38  C    0.027414   0.060699  -0.041320   0.171902  -0.075192   0.272555
    39  H    0.000179  -0.000203   0.003689   0.020902  -0.002433  -0.006366
    40  C    0.218854  -0.062619  -0.443727   0.329161   0.024915  -8.419727
    41  H    0.020172  -0.002106  -0.012999   0.011349   0.000092  -0.443658
    42  C   -0.079673  -0.005421   0.061935  -0.142439   0.002584   2.359143
    43  H   -0.004278  -0.000425   0.001196  -0.007582   0.000256   0.086187
    44  C   -0.016964   0.143128  -0.265683  -0.097645  -0.000575   0.015053
    45  H   -0.005082  -0.036641   0.001236  -0.001910   0.000268  -0.001786
[...]
 .00027125,-0.00002157,-0.00024246,-0.00008250,0.00004103,0.00005965,0.
 00007786,-0.00001014,-0.00008132,-0.00001991,0.00005698,0.00003212,0.0
 0003248,0.00007714,-0.00003749,0.00001632,0.00002635,0.00000045,0.5275
 7192,0.00016784,0.00025977,-0.00013787,-0.00100007,-0.00030242,-0.0003
 3952,0.02286100,-0.09770489,0.01384203,-0.00000322,-0.00017316,0.00007
 310,-0.00002847,-0.00006224,0.00002465,-0.00006292,-0.00015431,0.00003
 660,0.00012109,0.00012185,-0.00006113,-0.00015040,-0.00021154,0.000001
 67,-0.00012852,0.00006441,0.00000228,0.00015973,0.00011465,-0.00000494
 ,0.00109764,0.00153024,0.00037972,-0.00088334,-0.00199785,-0.00050309,
 -0.00003726,0.00126545,-0.00002736,0.03414969,-0.03086447,0.02762106,-
 0.00302647,-0.00398946,-0.00236905,0.00080550,0.00079900,0.00072927,-0
 .00000922,0.00005170,-0.00001137,-0.00003373,-0.00005035,0.00002991,-0
 .00007381,0.00012982,-0.00010301,0.00039629,-0.00021683,0.00154329,0.0
 0129759,-0.00326359,0.00056729,0.00030241,-0.00008786,0.00016774,-0.00
 007929,-0.00002911,-0.00002411,0.00000080,-0.00019452,-0.00001920,0.00
 001679,-0.00000420,-0.00003717,0.00005190,-0.00012139,0.00000632,0.000
 00119,-0.00001595,0.00000125,0.00155006,0.00020211,0.00039615,0.000031
 50,-0.00023457,-0.00009232,-0.00087512,0.00009702,-0.00034252,-0.00061
 789,-0.00006691,0.00055701,-0.00055912,0.00045836,-0.00025546,0.000033
 67,-0.00003117,0.00001223,0.00172836,-0.00029106,0.00102379,-0.0000662
 2,0.00030941,0.00003287,0.00023318,0.00001449,0.00014639,0.00011708,-0
 .00013754,-0.00031991,0.00011003,-0.00015592,0.00012020,0.00006322,-0.
 00004254,-0.00001807,0.00000728,0.00002140,0.00012642,0.00000753,-0.00
 009085,-0.00007492,-0.00007284,-0.00009976,0.00007257,-0.00001635,-0.0
 0001743,-0.00001222,0.02461491,0.60516403,0.00006456,0.00013620,0.0007
 4767,0.00116683,0.00021201,0.00035861,-0.09066708,0.03693543,-0.139854
 44,-0.00003858,0.00001536,-0.00021382,-0.00002218,-0.00004241,-0.00016
 512,0.00019834,-0.00001841,-0.00038902,-0.00012761,-0.00015180,0.00010
 644,0.00014764,0.00025613,0.00001172,-0.00018987,-0.00011049,-0.000127
 96,-0.00035293,0.00010743,0.00002972,-0.00149939,-0.00135360,-0.000625
 72,0.00065129,0.00163820,0.00047407,-0.00089662,-0.00058190,-0.0003105
 8,0.00123456,0.01464542,-0.00111466,0.00112401,-0.00268101,0.00197086,
 -0.00081826,-0.00123511,-0.00100765,0.00011071,-0.00005450,0.00001562,
 -0.00000125,-0.00000077,0.00009139,0.00006734,-0.00010270,-0.00005206,
 0.00279965,-0.00723699,-0.00003698,-0.00010777,-0.00086787,-0.00011286
 ,-0.00017204,0.00009637,-0.00020052,-0.00000738,-0.00002746,0.00001034
 ,-0.00019829,0.00024321,-0.00004837,-0.00007631,-0.00003765,0.00003208
 ,0.00004308,0.00003425,-0.00000704,0.00000318,0.00002426,0.00000461,-0
 .00052022,-0.00187260,0.00047986,0.00019900,-0.00034712,-0.00000846,0.
 00046561,-0.00009585,-0.00032826,0.00070372,0.00058593,0.00029542,0.00
 180627,-0.00058654,0.00113696,0.00006887,0.00003850,-0.00014142,-0.002
 08391,0.00165083,-0.00081040,0.00000400,-0.00036925,-0.00006045,0.0004
 0229,0.00065252,0.00000829,0.00096693,-0.00087118,0.00007881,-0.000321
 04,-0.00043356,-0.00031215,-0.00008623,0.00006262,0.00008345,0.0001063
 5,0.00002879,-0.00007892,-0.00001344,0.00003353,0.00002386,-0.00002524
 ,0.00006748,-0.00002656,0.00001719,0.00002286,0.00000515,-0.03943576,0
 .03272654,0.52594305,0.00015974,0.00010471,-0.00000095,-0.00025905,-0.
 00004759,-0.00011325,-0.02013957,0.00185266,-0.00461100,-0.00003765,-0
 .00006660,0.00002005,-0.00006855,-0.00000513,-0.00000189,-0.00004386,-
 0.00004600,-0.00001314,0.00003669,0.00002450,-0.00000243,-0.00002464,-
 0.00004760,-0.00001174,-0.00005040,0.00001803,0.00000065,0.00003583,0.
 00001444,-0.00000068,0.00025022,0.00031982,0.00014120,-0.00008778,-0.0
 0044934,-0.00013859,0.00011655,0.00026102,0.00011324,0.00078410,-0.006
 23610,0.00015775,-0.00052895,0.00081279,-0.00037917,0.00028199,0.00016
 493,0.00027369,-0.00001079,0.00002758,0.00000974,-0.00001675,-0.000020
 68,-0.00001837,-0.00002254,0.00002117,0.00001313,-0.00026418,0.0005335
 9,-0.00017955,0.00041746,0.00073944,0.00060787,0.00007143,0.00000212,0
 .00002157,-0.00000413,0.00000128,-0.00000784,-0.00002627,-0.00002589,-
 0.00000696,0.00000286,-0.00000316,-0.00000372,0.00000580,-0.00001819,-
 0.00000141,0.00000052,-0.00000144,0.00000277,0.00010305,-0.00015166,-0
 .00016426,-0.00003070,0.00005740,0.00000733,0.00000748,0.00004468,-0.0
 0002150,0.00003768,0.00004051,-0.00002476,-0.00003499,0.00013292,0.000
 07080,0.00005480,-0.00001787,0.00003075,0.00045367,0.00003956,0.000297
 04,-0.00000804,0.00006798,-0.00000684,0.00004094,0.00001778,-0.0000251
 7,0.00003341,-0.00004057,-0.00007263,0.00003464,-0.00004358,0.00000887
 ,0.00000554,-0.00000142,-0.00001028,-0.00001639,0.00000417,0.00000822,
 0.00000410,-0.00001208,-0.00000168,-0.00000462,-0.00001133,0.00000533,
 -0.00000222,-0.00000464,0.00000116,-0.25227373,-0.07986304,0.06186370,
 0.27411865,0.00012081,0.00007595,0.00004385,-0.00001429,0.00001085,-0.
 00001231,0.01637759,0.00529182,-0.00266309,-0.00003590,-0.00004016,0.0
 0000082,-0.00006561,0.00000015,-0.00000963,-0.00002151,-0.00002463,-0.
 00003574,0.00001055,0.00000019,0.00001064,0.00001545,-0.00001218,-0.00
 000714,-0.00001707,-0.00003965,-0.00002032,-0.00000680,0.00000049,0.00
 000310,0.00006412,-0.00001580,0.00002874,0.00001090,0.00002478,0.00000
 744,0.00006407,-0.00011113,0.00012581,0.00070073,0.00291706,-0.0004712
 0,0.00027054,-0.00077372,0.00055435,0.00000317,0.00003217,-0.00006421,
 -0.00000481,-0.00000565,-0.00000909,-0.00002174,-0.00001563,-0.0000177
 2,-0.00001248,-0.00000188,0.00002777,-0.00066576,0.00020863,-0.0007830
 2,0.00149010,-0.00209814,-0.00116443,-0.00010461,0.00010988,-0.0000162
 6,0.00002150,0.00000944,0.00000876,-0.00000822,0.00002427,-0.00001009,
 0.00000645,0.00000541,0.00000428,0.00000103,0.00000464,-0.00000567,0.0
 0000064,0.00000294,0.00000276,0.00011142,0.00070921,0.00037028,0.00002
 751,0.00000091,-0.00003394,0.00025965,-0.00020593,0.00019189,-0.000019
 92,0.00010298,-0.00022128,-0.00066994,-0.00008994,-0.00039797,0.000045
 79,0.00001099,-0.00009950,0.00018741,-0.00066371,0.00067758,0.00003384
 ,0.00001790,-0.00002817,-0.00011913,-0.00015915,-0.00001682,-0.0000531
 5,0.00004927,0.00002524,-0.00000324,0.00007513,0.00001543,-0.00001165,
 0.00001256,-0.00001176,-0.00002208,0.00000812,-0.00001417,0.00000024,0
 .00000026,0.00001091,0.00001369,0.00000810,-0.00001175,0.00000031,-0.0
 0000132,0.00000304,-0.08441686,-0.08339742,0.02511062,0.08576346,0.083
 51283,-0.00014818,-0.00011998,-0.00017647,-0.00022769,-0.00004476,-0.0
 0006190,-0.02741700,-0.00474389,0.00338440,0.00004311,0.00004604,0.000
 03224,0.00007184,0.00001151,0.00003898,-0.00001338,0.00003376,0.000108
 78,0.00001334,0.00002805,-0.00002982,-0.00002344,-0.00002835,-0.000000
 13,0.00010077,0.00002827,0.00005978,0.00007417,-0.00003210,-0.00000699
 ,0.00025331,0.00026098,0.00009460,-0.00017374,-0.00041004,-0.00010236,
 0.00007028,0.00016067,0.00004338,0.00028032,-0.00340288,0.00055964,-0.
 00027442,0.00037678,-0.00050255,0.00017723,0.00023567,0.00020190,-0.00
 001669,0.00001122,-0.00001321,-0.00000814,-0.00001439,-0.00000629,-0.0
 0002102,0.00001087,0.00000279,0.00140437,0.00073085,0.00065242,-0.0002
 2362,-0.00028586,0.00014836,0.00007704,-0.00010832,0.00000527,0.000000
 95,0.00000586,-0.00000503,0.00008946,-0.00005591,0.00002377,0.00001584
 ,0.00001131,-0.00000130,-0.00000904,-0.00000226,0.00000689,-0.00000101
 ,-0.00000759,-0.00000356,-0.00000606,-0.00008833,-0.00021156,-0.000034
 50,0.00003352,0.00000252,-0.00014087,0.00021749,-0.00002532,-0.0000025
 7,-0.00029391,0.00000371,0.00001682,0.00020513,0.00008870,-0.00005304,
 0.00001394,0.00001681,-0.00023513,0.00003386,-0.00036093,0.00002134,0.
 00001757,0.00000569,-0.00008840,-0.00018373,-0.00004232,-0.00011507,0.
 00029711,0.00005186,0.00007134,0.00015462,0.00004740,0.00002821,-0.000
 02507,-0.00001193,-0.00000957,-0.00000360,0.00000720,0.00000045,-0.000
 00868,-0.00000105,0.00000349,-0.00001661,0.00000529,-0.00000228,-0.000
 00134,-0.00000204,0.06585388,0.02517432,-0.06872516,-0.06138041,-0.026
 80289,0.06891520,-0.00016660,-0.00010993,-0.00009120,-0.00001422,-0.00
 001321,0.00001244,-0.00603834,0.03399047,-0.00179110,0.00005242,0.0000
 5256,0.00000439,0.00009070,0.00000489,0.00002030,0.00001932,0.00003112
 ,0.00006313,-0.00000981,0.00001026,-0.00002007,-0.00002918,0.00000256,
 0.00001085,0.00004323,-0.00000366,0.00003008,0.00002281,-0.00000218,-0
 .00000367,0.00012966,0.00001890,0.00004851,-0.00016897,-0.00007130,-0.
 00003998,-0.00000686,0.00002559,-0.00010446,-0.00242084,-0.00043920,-0
 .00352903,0.00005990,0.00118110,-0.00003958,0.00024746,0.00017578,0.00
 013306,-0.00001312,-0.00002316,-0.00002991,0.00002005,0.00001794,0.000
 03122,0.00001000,-0.00000160,-0.00004699,-0.00072549,-0.00029519,-0.00
 061580,0.00039881,-0.00013810,0.00053186,0.00007076,-0.00012926,-0.000
 00430,-0.00002644,-0.00001820,-0.00001258,0.00005697,-0.00003261,0.000
 02620,-0.00000474,-0.00000208,-0.00000789,0.00000525,-0.00000250,0.000
 00865,-0.00000108,-0.00000495,-0.00000411,-0.00031789,-0.00006244,-0.0
 0007795,-0.00004939,0.00010411,0.00002743,-0.00018903,0.00018488,-0.00
 027522,-0.00040227,-0.00014592,0.00050063,-0.00004401,-0.00003225,-0.0
 0003214,0.00003451,-0.00001341,0.00002854,0.00041421,0.00003937,0.0002
 0484,-0.00000699,0.00004371,-0.00001231,0.00017299,0.00016177,0.000039
 27,0.00002091,-0.00001443,-0.00004533,-0.00000737,-0.00005207,-0.00000
 247,0.00003170,-0.00002220,0.00000288,0.00003354,-0.00002620,0.0000308
 6,0.00000099,-0.00000083,-0.00001028,-0.00001268,-0.00001574,0.0000081
 0,0.00000142,0.00000309,-0.00000458,-0.04684964,-0.02025906,-0.0001308
 8,0.00126019,-0.02767481,-0.00398886,0.05390838,0.00003689,0.00001146,
 0.00008831,0.00018766,0.00005672,0.00005402,0.00577534,-0.01455958,0.0
 0270912,-0.00001798,0.00000695,-0.00002279,-0.00003394,0.00001012,-0.0
 0001977,0.00001398,0.00001092,-0.00004287,-0.00002058,-0.00002828,0.00
 001937,0.00002918,0.00004201,-0.00000309,-0.00003152,-0.00001094,-0.00
 004448,-0.00004503,-0.00000989,0.00000750,-0.00029848,-0.00028073,-0.0
 0010900,0.00023068,0.00043962,0.00016038,0.00023120,-0.00020084,0.0001
 3618,0.00012701,0.00290272,0.00159715,0.00009421,-0.00047576,0.0000703
 1,-0.00025980,-0.00034667,-0.00016692,0.00002229,0.00001296,0.00002193
 ,0.00002899,0.00001880,-0.00002525,0.00000930,-0.00001690,0.00003204,-
 0.00016542,-0.00009878,-0.00018769,0.00026469,0.00007151,0.00010307,-0
 .00008985,0.00014446,-0.00001368,0.00001563,0.00000397,0.00001122,-0.0
 0004314,0.00002037,-0.00000471,-0.00000375,-0.00000045,0.00001110,-0.0
 0000830,0.00002071,-0.00000251,0.00000082,0.00000414,-0.00000014,0.000
 18942,-0.00012520,0.00001366,0.00002713,-0.00006305,-0.00000191,0.0002
 5932,-0.00032848,0.00014273,0.00001733,0.00021785,-0.00015740,0.000185
 56,-0.00010015,0.00010762,0.00002165,-0.00000814,0.00000384,-0.0000231
 6,0.00020191,0.00008146,-0.00000442,-0.00002578,-0.00001074,-0.0001204
 9,-0.00005146,-0.00006857,-0.00002427,-0.00001526,0.00008485,0.0000313
 6,0.00003920,-0.00003622,-0.00003417,0.00002115,0.00001165,-0.00001526
 ,0.00000874,-0.00001448,0.00000115,0.00000953,-0.00000002,0.00001325,0
 .00001535,-0.00000625,0.00000069,0.00000077,0.00000231,-0.01043421,-0.
 31759563,-0.03034764,-0.00037244,-0.00842126,-0.00228788,0.00559896,0.
 34328876,0.00007273,0.00009137,0.00015936,0.00006309,-0.00000891,0.000
 00200,-0.00564147,0.03053157,-0.00149526,-0.00002641,-0.00002885,-0.00
 003953,-0.00004034,-0.00001859,-0.00003645,0.00002891,-0.00003769,-0.0
 0009434,0.00000195,-0.00000702,0.00001098,0.00000362,0.00002137,-0.000
 00813,-0.00005149,-0.00001406,-0.00005342,-0.00003329,0.00004890,0.000
 00230,0.00001656,-0.00002802,0.00003495,-0.00004965,0.00000951,-0.0001
 0262,-0.00008675,-0.00000555,0.00007677,-0.00213052,-0.00035680,-0.002
 46232,-0.00030559,0.00113633,0.00018777,0.00017723,0.00014472,0.000068
 13,-0.00000976,-0.00002710,-0.00001168,-0.00005302,-0.00006026,0.00004
 261,-0.00001954,0.00001326,-0.00006029,-0.00080470,-0.00062522,0.00000
 171,0.00068493,-0.00023970,-0.00002881,-0.00012238,0.00016017,-0.00000
 004,0.00002155,0.00000338,0.00002622,-0.00003473,-0.00001954,-0.000014
 87,0.00000661,0.00000786,0.00000691,0.00003331,-0.00001994,-0.00000817
 ,0.00000279,0.00000184,0.00000436,-0.00030895,-0.00030747,-0.00014719,
 -0.00002003,0.00008669,-0.00000970,0.00024454,-0.00030072,0.00011357,0
 .00027788,0.00012658,-0.00018002,0.00023246,0.00002868,0.00005071,0.00
 004598,-0.00000284,-0.00000304,0.00001961,0.00024614,0.00030767,-0.000
 03229,0.00003548,0.00002204,-0.00018220,-0.00026511,-0.00013875,-0.000
 05300,0.00006069,0.00003556,0.00008614,0.00011238,0.00004114,-0.000025
 88,0.00001232,-0.00000816,0.00002473,0.00001948,0.00000394,-0.00000589
 ,-0.00002377,-0.00000396,-0.00001719,-0.00000708,0.00000108,0.00000515
 ,0.00000664,0.00000124,0.00121153,-0.03986953,-0.05243279,0.00104697,0
 .00916635,0.00139009,0.00773807,0.02849888,0.05500589,-0.00020891,-0.0
 0017346,-0.00019864,-0.00020670,-0.00003684,-0.00002558,0.00048277,-0.
 00196204,-0.03114759,0.00005476,0.00007610,0.00002551,0.00009255,0.000
 01685,0.00004183,-0.00000534,0.00004883,0.00012588,0.00000729,0.000027
 16,-0.00003078,-0.00002970,-0.00003142,0.00001076,0.00015496,-0.000035
 34,0.00007923,0.00008010,-0.00004021,-0.00001285,0.00026305,0.00023327
 ,0.00002874,-0.00013019,-0.00037212,-0.00001642,0.00007748,0.00015129,
 0.00004231,0.00198204,-0.00371212,-0.00051980,-0.00093033,0.00019926,-
 0.00003969,0.00023305,0.00031570,0.00006844,-0.00000881,0.00001697,-0.
 00002271,-0.00000303,-0.00000724,-0.00000339,-0.00001804,0.00001575,0.
 00000152,0.00085452,0.00023517,0.00087830,-0.00030659,-0.00012599,-0.0
 0004414,-0.00006467,-0.00004235,0.00001885,0.00001164,0.00001238,-0.00
 000572,0.00013803,-0.00000114,0.00005741,0.00001887,0.00001557,0.00000
 344,-0.00000875,-0.00000270,0.00000870,-0.00000059,-0.00000795,-0.0000
 0397,-0.00015186,-0.00044954,0.00001983,0.00000684,0.00000928,-0.00005
 330,-0.00002524,0.00032932,-0.00008580,-0.00004243,-0.00034606,0.00000
 382,0.00023667,0.00023269,0.00025915,-0.00000029,0.00002218,-0.0000452
 7,-0.00050307,0.00024048,-0.00014279,0.00001947,0.00001421,-0.00000885
 ,-0.00043518,-0.00046457,-0.00021254,-0.00123371,0.00086403,0.00019443
 ,0.00006845,0.00017184,0.00002387,0.00003273,-0.00002229,-0.00002217,-
 0.00001160,0.00000047,0.00001007,-0.00000112,-0.00000890,-0.00000263,0
 .00000257,-0.00001839,0.00000276,-0.00000243,-0.00000006,-0.00000097,-
 0.06557179,0.01792008,0.06357715,-0.00436154,0.00836861,0.02594662,0.0
 0039875,-0.00136746,-0.00199123,0.06904531,-0.00011238,-0.00013010,-0.
 00019834,-0.00010012,-0.00000082,-0.00001018,0.00023646,0.00165821,0.0
 1550313,0.00003316,0.00004422,0.00004159,0.00006159,0.00002081,0.00004
 498,-0.00003346,0.00004374,0.00011776,0.00000235,0.00001548,-0.0000197
 0,-0.00000995,-0.00002743,0.00000756,0.00011253,-0.00001651,0.00005729
 ,0.00006451,-0.00005235,-0.00000122,0.00015399,0.00005933,0.00003147,-
 0.00007758,-0.00008152,-0.00004370,0.00011160,-0.00008412,-0.00002586,
 -0.00161151,0.00353298,0.00208827,0.00096682,-0.00072928,0.00015523,-0
 .00000517,0.00000228,0.00010035,-0.00002228,-0.00000351,-0.00000245,0.
 00002075,0.00002779,-0.00002388,0.00000460,-0.00000761,0.00003442,-0.0
 0053568,0.00070354,-0.00048200,-0.00089456,-0.00170844,0.00135727,0.00
 009098,-0.00020644,0.00001307,-0.00000994,0.00000184,-0.00001798,0.000
 09969,0.00002479,0.00002188,0.00000231,0.00000099,-0.00000895,-0.00002
 744,0.00001730,0.00000367,-0.00000231,-0.00000434,-0.00000480,0.000254
 68,0.00114885,0.00019029,-0.00000807,0.00003166,0.00000277,-0.00031904
 ,0.00032866,-0.00008628,-0.00019348,-0.00051362,-0.00009321,-0.0009620
 9,-0.00009408,-0.00063377,-0.00007307,-0.00001425,0.00004701,0.0008851
 6,-0.00099764,-0.00012744,-0.00000421,0.00000870,0.00004250,0.00025228
 ,0.00009281,0.00014757,0.00040177,0.00005161,-0.00005851,-0.00009843,0
 .00000028,0.00001726,0.00003433,-0.00002380,0.00000157,-0.00001990,-0.
 00001534,-0.00000761,0.00000376,0.00001591,0.00000817,0.00001986,0.000
 00300,0.00000127,-0.00000282,-0.00000326,-0.00000233,0.01724029,-0.068
 99878,-0.06589807,-0.00358017,0.00285037,0.01086899,0.00795948,-0.0048
 1747,-0.02829683,-0.02030927,0.06784558,-0.00015218,-0.00015494,-0.000
 28896,-0.00033434,-0.00004158,-0.00006398,-0.00770165,0.00432623,-0.02
 257428,0.00004505,0.00005618,0.00006242,0.00006331,0.00002829,0.000063
 44,-0.00004897,0.00004643,0.00016937,0.00002527,0.00004124,-0.00003824
 ,-0.00004576,-0.00006076,0.00001315,0.00012253,0.00003056,0.00008577,0
 .00011715,-0.00005824,-0.00001870,0.00039991,0.00034954,0.00006918,-0.
 00013710,-0.00053172,-0.00000134,0.00019072,0.00023455,0.00006290,0.00
 171167,-0.00678180,0.00024918,-0.00098923,0.00060743,-0.00028308,0.000
 40881,0.00035832,0.00021495,-0.00000641,0.00003583,-0.00002656,0.00001
 655,0.00001082,-0.00002617,-0.00001411,0.00002363,0.00001723,-0.000288
 65,0.00061617,0.00023793,0.00056674,0.00050891,-0.00005227,0.00006243,
 -0.00007988,0.00000182,0.00000175,0.00000771,-0.00000568,0.00010696,-0
 .00007565,0.00004509,0.00002369,0.00001369,-0.00000475,-0.00002146,-0.
 00000062,0.00000637,-0.00000185,-0.00000943,-0.00000364,0.00006175,-0.
 00024846,0.00011133,-0.00000924,0.00004845,-0.00003735,-0.00009122,0.0
 0007109,0.00001903,-0.00025740,-0.00029140,-0.00002971,0.00000182,0.00
 032443,-0.00000971,0.00004948,-0.00001715,0.00000468,0.00021165,-0.000
 03194,0.00024590,-0.00000897,0.00006647,0.00000949,0.00005673,-0.00026
 265,-0.00003158,-0.00008867,0.00020680,0.00026640,0.00011204,0.0002071
 1,0.00004698,0.00002318,-0.00002867,-0.00002206,-0.00002669,-0.0000100
 7,0.00001754,0.00000313,-0.00000167,-0.00000413,0.00000877,-0.00001845
 ,0.00000497,-0.00000456,-0.00000461,-0.00000132,0.05871341,-0.06079186
 ,-0.26471660,0.00249640,-0.00346145,-0.00560774,0.00141934,-0.00039467
 ,-0.00025745,-0.05679176,0.06513777,0.29208020\\-0.00002126,-0.0000126
 1,0.00006662,0.00000811,-0.00000755,0.00000698,0.00000928,-0.00002432,
 0.00001476,0.00000830,0.00002353,-0.00001507,0.00000832,0.00000837,-0.
 00000629,-0.00000562,-0.00004072,-0.00004647,0.00000112,0.00001862,-0.
 00000437,-0.00000093,0.00000977,0.00000908,0.00004778,-0.00007335,0.00
 000339,0.00001195,0.00002905,-0.00000374,0.00001823,0.00000072,-0.0000
 0655,-0.00002408,0.00001664,0.00000399,-0.00000512,0.00000048,0.000004
 28,-0.00000165,0.00002390,-0.00000554,0.00000572,-0.00000905,-0.000003
 55,-0.00001340,-0.00000893,0.00000822,-0.00000241,-0.00000418,0.000005
 86,-0.00000619,-0.00000015,0.00000631,-0.00000301,0.00000034,-0.000000
 68,0.00000267,0.00000622,0.00000848,-0.00000618,0.00000594,0.00000071,
 -0.00001377,0.00001782,-0.00000458,0.00000095,-0.00000615,-0.00000064,
 -0.00001668,0.00002297,-0.00001477,0.00000246,-0.00000278,0.00000060,-
 0.00001162,0.00001202,0.00000499,-0.00000161,-0.00000142,-0.00000204,0
 .00000732,0.00001076,0.00000022,0.00000221,-0.00000466,0.00000073,-0.0
 0000631,-0.00000158,-0.00000079,0.00000162,0.00000346,-0.00000244,-0.0
 0000367,-0.00000181,-0.00000709,0.00000395,0.00000136,0.00000221,0.000
 00533,-0.00000579,0.00000280,-0.00000262,0.00000128,-0.00000206,0.0000
 1167,0.00000545,0.00000105,-0.00000456,-0.00000272,-0.00000028,0.00000
 209,-0.00000476,-0.00001674,-0.00000223,0.00001399,-0.00000537,0.00000
 108,-0.00000821,0.00000061,-0.00000056,0.00000294,0.00000234,0.0000098
 3,-0.00000265,-0.00000393,-0.00000329,0.00000115,0.00000126,-0.0000108
 8,-0.00000430,0.00001069,0.00000255,-0.00000380,0.00000225,-0.00000597
 ,-0.00000075,-0.00000318,0.00000111,-0.00000452,-0.00001228\\\@


 NATURE REVEALS EVERY SECRET ONCE.
                    - RALPH WALDO EMERSON
 Job cpu time:       1 days 15 hours 54 minutes 19.4 seconds.
 Elapsed time:       0 days  2 hours 30 minutes 12.6 seconds.
 File lengths (MBytes):  RWF=   2329 Int=      0 D2E=      0 Chk=     49 Scr=      1
 Normal termination of Gaussian 16 at Thu Oct  9 01:01:30 2025.
