 Entering Gaussian System, Link 0=g16
 Input=NENP0019.gjf
 Output=NENP0019.log
 Initial command:
 /usr/local/g16/l1.exe "/dados_01/scratch/Gau-2565299.inp" -scrdir="/dados_01/scratch/"
 Entering Link 1 = /usr/local/g16/l1.exe PID=   2565300.
  
 Copyright (c) 1988-2017, Gaussian, Inc.  All Rights Reserved.
  
 This is part of the Gaussian(R) 16 program.  It is based on
 the Gaussian(R) 09 system (copyright 2009, Gaussian, Inc.),
 the Gaussian(R) 03 system (copyright 2003, Gaussian, Inc.),
 the Gaussian(R) 98 system (copyright 1998, Gaussian, Inc.),
 the Gaussian(R) 94 system (copyright 1995, Gaussian, Inc.),
 the Gaussian 92(TM) system (copyright 1992, Gaussian, Inc.),
 the Gaussian 90(TM) system (copyright 1990, Gaussian, Inc.),
 the Gaussian 88(TM) system (copyright 1988, Gaussian, Inc.),
 the Gaussian 86(TM) system (copyright 1986, Carnegie Mellon
 University), and the Gaussian 82(TM) system (copyright 1983,
 Carnegie Mellon University). Gaussian is a federally registered
 trademark of Gaussian, Inc.
  
 This software contains proprietary and confidential information,
 including trade secrets, belonging to Gaussian, Inc.
  
 This software is provided under written license and may be
 used, copied, transmitted, or stored only in accord with that
 written license.
  
 The following legend is applicable only to US Government
 contracts under FAR:
  
                    RESTRICTED RIGHTS LEGEND
  
 Use, reproduction and disclosure by the US Government is
 subject to restrictions as set forth in subparagraphs (a)
 and (c) of the Commercial Computer Software - Restricted
 Rights clause in FAR 52.227-19.
  
 Gaussian, Inc.
 340 Quinnipiac St., Bldg. 40, Wallingford CT 06492
  
  
 ---------------------------------------------------------------
 Warning -- This program may not be used in any manner that
 competes with the business of Gaussian, Inc. or will provide
 assistance to any competitor of Gaussian, Inc.  The licensee
 of this program is prohibited from giving any competitor of
 Gaussian, Inc. access to this program.  By using this program,
 the user acknowledges that Gaussian, Inc. is engaged in the
 business of creating and licensing software in the field of
 computational chemistry and represents and warrants to the
 licensee that it is not a competitor of Gaussian, Inc. and that
 it will not use this program in any manner prohibited above.
 ---------------------------------------------------------------
  

 Cite this work as:
 Gaussian 16, Revision B.01,
 M. J. Frisch, G. W. Trucks, H. B. Schlegel, G. E. Scuseria, 
 M. A. Robb, J. R. Cheeseman, G. Scalmani, V. Barone, 
 G. A. Petersson, H. Nakatsuji, X. Li, M. Caricato, A. V. Marenich, 
 J. Bloino, B. G. Janesko, R. Gomperts, B. Mennucci, H. P. Hratchian, 
 J. V. Ortiz, A. F. Izmaylov, J. L. Sonnenberg, D. Williams-Young, 
 F. Ding, F. Lipparini, F. Egidi, J. Goings, B. Peng, A. Petrone, 
 T. Henderson, D. Ranasinghe, V. G. Zakrzewski, J. Gao, N. Rega, 
 G. Zheng, W. Liang, M. Hada, M. Ehara, K. Toyota, R. Fukuda, 
 J. Hasegawa, M. Ishida, T. Nakajima, Y. Honda, O. Kitao, H. Nakai, 
 T. Vreven, K. Throssell, J. A. Montgomery, Jr., J. E. Peralta, 
 F. Ogliaro, M. J. Bearpark, J. J. Heyd, E. N. Brothers, K. N. Kudin, 
 V. N. Staroverov, T. A. Keith, R. Kobayashi, J. Normand, 
 K. Raghavachari, A. P. Rendell, J. C. Burant, S. S. Iyengar, 
 J. Tomasi, M. Cossi, J. M. Millam, M. Klene, C. Adamo, R. Cammi, 
 J. W. Ochterski, R. L. Martin, K. Morokuma, O. Farkas, 
 J. B. Foresman, and D. J. Fox, Gaussian, Inc., Wallingford CT, 2016.
 
 ******************************************
 Gaussian 16:  ES64L-G16RevB.01 20-Dec-2017
                 9-Oct-2025 
 ******************************************
 %nprocs=16
 Will use up to   16 processors via shared memory.
 %mem=40GB
 %chk=NENP0019.chk
 ----------------------------------------------------------------------
 # opt freq=noraman M08HX/6-311++G** scf=xqc Empiricaldispersion=pfd In
 t(Grid=ultraFine)
 ----------------------------------------------------------------------
 1/18=20,19=15,26=4,38=1/1,3;
 2/9=110,12=2,17=6,18=5,40=1/2;
 3/5=4,6=6,7=1111,11=2,25=1,30=1,71=1,74=-74,75=-5,124=11/1,2,3;
 4//1;
 5/5=2,8=3,13=1,38=5/2,8;
 6/7=2,8=2,9=2,10=2,28=1/1;
 7//1,2,3,16;
 1/18=20,19=15,26=4/3(2);
 2/9=110/2;
 99//99;
 2/9=110/2;
 3/5=4,6=6,7=1111,11=2,25=1,30=1,71=1,74=-74,75=-5,124=11/1,2,3;
 4/5=5,16=3,69=1/1;
 5/5=2,8=3,13=1,38=5/2,8;
 7//1,2,3,16;
 1/18=20,19=15,26=4/3(-5);
 2/9=110/2;
 6/7=2,8=2,9=2,10=2,19=2,28=1/1;
 99/9=1/99;
 --------
 NENP0019
 --------
 Symbolic Z-matrix:
 Charge =  0 Multiplicity = 1
 S                     3.8977    1.5021    2.6783 
 O                     5.9208    2.0549    6.0667 
 O                     11.1357   3.9161    12.4279 
 O                     5.1457    1.9041    2.107 
 O                     11.1946   3.9789    10.2945 
 N                     4.1318    1.6292    4.2766 
 H                     4.893     1.9493    4.5176 
 N                     10.6192   3.7577    11.3396 
 C                     9.2247    3.27      11.2871 
 C                     8.6388    3.1015    10.0502 
 H                     9.1119    3.3037    9.2751 
 C                     7.3316    2.6268    9.9736 
 C                     6.7363    2.4217    8.652 
 H                     7.271     2.6452    7.9248 
 C                     5.5383    1.96      8.367 
 H                     4.9609    1.7181    9.0551 
 C                     5.1052    1.8229    6.9616 
 C                     3.7131    1.4057    6.6474 
 C                     3.2575    1.2862    5.3193 
 C                     1.9574    0.8529    5.0659 
 H                     1.6637    0.758     4.1877 
 C                     1.104     0.565     6.112 
 H                     0.2349    0.2856    5.9328 
 C                     1.5231    0.6875    7.4157 
 H                     0.9417    0.4954    8.1159 
 C                     2.812     1.0956    7.6755 
 H                     3.0878    1.1637    8.5936 
 C                     6.6563    2.3443    11.1618 
 H                     5.773     2.0059    11.1463 
 C                     7.2702    2.5235    12.3815 
 H                     6.8057    2.3267    13.1636 
 C                     8.5697    2.992     12.458 
 H                     9.0468    3.1237    13.3114 
 C                     2.6814    2.6988    2.2531 
 C                     1.4105    2.2739    1.8994 
 H                     1.2128    1.3659    1.873 
 C                     2.9901    4.0425    2.2597 
 H                     3.8474    4.3311    2.4734 
 C                     0.4448    3.1988    1.5868 
 H                    -0.4089    2.9155    1.3521 
 C                     1.9876    4.9597    1.9374 
 H                     2.1725    5.8715    1.9379 
 C                     0.7318    4.5156    1.6205 
 H                     0.0641    5.1335    1.426 
 O                     3.3483    0.219     2.3655 
 

 GradGradGradGradGradGradGradGradGradGradGradGradGradGradGradGradGradGrad
 Berny optimization.
 Initialization pass.
                           ----------------------------
                           !    Initial Parameters    !
                           ! (Angstroms and Degrees)  !
 --------------------------                            --------------------------
 ! Name  Definition              Value          Derivative Info.                !
 --------------------------------------------------------------------------------
 ! R1    R(1,4)                  1.4302         estimate D2E/DX2                !
 ! R2    R(1,6)                  1.6203         estimate D2E/DX2                !
 ! R3    R(1,34)                 1.7585         estimate D2E/DX2                !
 ! R4    R(1,45)                 1.4304         estimate D2E/DX2                !
 ! R5    R(2,17)                 1.2328         estimate D2E/DX2                !
 ! R6    R(3,8)                  1.215          estimate D2E/DX2                !
 ! R7    R(5,8)                  1.2134         estimate D2E/DX2                !
 ! R8    R(6,7)                  0.8602         estimate D2E/DX2                !
 ! R9    R(6,19)                 1.4033         estimate D2E/DX2                !
 ! R10   R(8,9)                  1.4783         estimate D2E/DX2                !
 ! R11   R(9,10)                 1.379          estimate D2E/DX2                !
 ! R12   R(9,32)                 1.3702         estimate D2E/DX2                !
 ! R13   R(10,11)                0.9303         estimate D2E/DX2                !
 ! R14   R(10,12)                1.3928         estimate D2E/DX2                !
 ! R15   R(12,13)                1.4639         estimate D2E/DX2                !
 ! R16   R(12,28)                1.3956         estimate D2E/DX2                !
 ! R17   R(13,14)                0.9299         estimate D2E/DX2                !
 ! R18   R(13,15)                1.3151         estimate D2E/DX2                !
 ! R19   R(15,16)                0.9303         estimate D2E/DX2                !
 ! R20   R(15,17)                1.477          estimate D2E/DX2                !
 ! R21   R(17,18)                1.4868         estimate D2E/DX2                !
 ! R22   R(18,19)                1.4091         estimate D2E/DX2                !
 ! R23   R(18,26)                1.4018         estimate D2E/DX2                !
 ! R24   R(19,20)                1.3936         estimate D2E/DX2                !
 ! R25   R(20,21)                0.9309         estimate D2E/DX2                !
 ! R26   R(20,22)                1.3804         estimate D2E/DX2                !
 ! R27   R(22,23)                0.9303         estimate D2E/DX2                !
 ! R28   R(22,24)                1.3749         estimate D2E/DX2                !
 ! R29   R(24,25)                0.9302         estimate D2E/DX2                !
 ! R30   R(24,26)                1.3767         estimate D2E/DX2                !
 ! R31   R(26,27)                0.961          estimate D2E/DX2                !
 ! R32   R(28,29)                0.946          estimate D2E/DX2                !
 ! R33   R(28,30)                1.3772         estimate D2E/DX2                !
 ! R34   R(30,31)                0.9307         estimate D2E/DX2                !
 ! R35   R(30,32)                1.3835         estimate D2E/DX2                !
 ! R36   R(32,33)                0.9865         estimate D2E/DX2                !
 ! R37   R(34,35)                1.3859         estimate D2E/DX2                !
 ! R38   R(34,37)                1.3787         estimate D2E/DX2                !
 ! R39   R(35,36)                0.9296         estimate D2E/DX2                !
 ! R40   R(35,39)                1.3732         estimate D2E/DX2                !
 ! R41   R(37,38)                0.9295         estimate D2E/DX2                !
 ! R42   R(37,41)                1.3965         estimate D2E/DX2                !
 ! R43   R(39,40)                0.9296         estimate D2E/DX2                !
 ! R44   R(39,43)                1.3481         estimate D2E/DX2                !
 ! R45   R(41,42)                0.9304         estimate D2E/DX2                !
 ! R46   R(41,43)                1.3692         estimate D2E/DX2                !
 ! R47   R(43,44)                0.9303         estimate D2E/DX2                !
 ! A1    A(4,1,6)              104.2351         estimate D2E/DX2                !
 ! A2    A(4,1,34)             108.4023         estimate D2E/DX2                !
 ! A3    A(4,1,45)             119.9959         estimate D2E/DX2                !
 ! A4    A(6,1,34)             106.5623         estimate D2E/DX2                !
 ! A5    A(6,1,45)             109.9719         estimate D2E/DX2                !
 ! A6    A(34,1,45)            106.9723         estimate D2E/DX2                !
 ! A7    A(1,6,7)              115.6826         estimate D2E/DX2                !
 ! A8    A(1,6,19)             128.5895         estimate D2E/DX2                !
 ! A9    A(7,6,19)             115.7279         estimate D2E/DX2                !
 ! A10   A(3,8,5)              123.1027         estimate D2E/DX2                !
 ! A11   A(3,8,9)              118.4137         estimate D2E/DX2                !
 ! A12   A(5,8,9)              118.4835         estimate D2E/DX2                !
 ! A13   A(8,9,10)             118.2275         estimate D2E/DX2                !
 ! A14   A(8,9,32)             119.1799         estimate D2E/DX2                !
 ! A15   A(10,9,32)            122.5898         estimate D2E/DX2                !
 ! A16   A(9,10,11)            120.3107         estimate D2E/DX2                !
 ! A17   A(9,10,12)            119.3229         estimate D2E/DX2                !
 ! A18   A(11,10,12)           120.3663         estimate D2E/DX2                !
 ! A19   A(10,12,13)           118.623          estimate D2E/DX2                !
 ! A20   A(10,12,28)           118.444          estimate D2E/DX2                !
 ! A21   A(13,12,28)           122.9219         estimate D2E/DX2                !
 ! A22   A(12,13,14)           116.0083         estimate D2E/DX2                !
 ! A23   A(12,13,15)           127.9701         estimate D2E/DX2                !
 ! A24   A(14,13,15)           116.0216         estimate D2E/DX2                !
 ! A25   A(13,15,16)           119.7617         estimate D2E/DX2                !
 ! A26   A(13,15,17)           120.3912         estimate D2E/DX2                !
 ! A27   A(16,15,17)           119.8471         estimate D2E/DX2                !
 ! A28   A(2,17,15)            118.636          estimate D2E/DX2                !
 ! A29   A(2,17,18)            121.2529         estimate D2E/DX2                !
 ! A30   A(15,17,18)           120.1102         estimate D2E/DX2                !
 ! A31   A(17,18,19)           121.7135         estimate D2E/DX2                !
 ! A32   A(17,18,26)           120.5925         estimate D2E/DX2                !
 ! A33   A(19,18,26)           117.6861         estimate D2E/DX2                !
 ! A34   A(6,19,18)            118.5634         estimate D2E/DX2                !
 ! A35   A(6,19,20)            121.4735         estimate D2E/DX2                !
 ! A36   A(18,19,20)           119.9571         estimate D2E/DX2                !
 ! A37   A(19,20,21)           119.8398         estimate D2E/DX2                !
 ! A38   A(19,20,22)           120.2508         estimate D2E/DX2                !
 ! A39   A(21,20,22)           119.9094         estimate D2E/DX2                !
 ! A40   A(20,22,23)           119.6172         estimate D2E/DX2                !
 ! A41   A(20,22,24)           120.7676         estimate D2E/DX2                !
 ! A42   A(23,22,24)           119.6152         estimate D2E/DX2                !
 ! A43   A(22,24,25)           120.3224         estimate D2E/DX2                !
 ! A44   A(22,24,26)           119.3893         estimate D2E/DX2                !
 ! A45   A(25,24,26)           120.2882         estimate D2E/DX2                !
 ! A46   A(18,26,24)           121.9365         estimate D2E/DX2                !
 ! A47   A(18,26,27)           120.0317         estimate D2E/DX2                !
 ! A48   A(24,26,27)           118.0317         estimate D2E/DX2                !
 ! A49   A(12,28,29)           120.6809         estimate D2E/DX2                !
 ! A50   A(12,28,30)           120.7971         estimate D2E/DX2                !
 ! A51   A(29,28,30)           118.5066         estimate D2E/DX2                !
 ! A52   A(28,30,31)           119.6208         estimate D2E/DX2                !
 ! A53   A(28,30,32)           120.7795         estimate D2E/DX2                !
 ! A54   A(31,30,32)           119.5996         estimate D2E/DX2                !
 ! A55   A(9,32,30)            118.0656         estimate D2E/DX2                !
 ! A56   A(9,32,33)            118.7488         estimate D2E/DX2                !
 ! A57   A(30,32,33)           123.1813         estimate D2E/DX2                !
 ! A58   A(1,34,35)            119.1656         estimate D2E/DX2                !
 ! A59   A(1,34,37)            120.4787         estimate D2E/DX2                !
 ! A60   A(35,34,37)           120.3534         estimate D2E/DX2                !
 ! A61   A(34,35,36)           120.1123         estimate D2E/DX2                !
 ! A62   A(34,35,39)           119.7668         estimate D2E/DX2                !
 ! A63   A(36,35,39)           120.1209         estimate D2E/DX2                !
 ! A64   A(34,37,38)           120.6791         estimate D2E/DX2                !
 ! A65   A(34,37,41)           118.5727         estimate D2E/DX2                !
 ! A66   A(38,37,41)           120.7481         estimate D2E/DX2                !
 ! A67   A(35,39,40)           119.8701         estimate D2E/DX2                !
 ! A68   A(35,39,43)           120.1636         estimate D2E/DX2                !
 ! A69   A(40,39,43)           119.9663         estimate D2E/DX2                !
 ! A70   A(37,41,42)           120.0595         estimate D2E/DX2                !
 ! A71   A(37,41,43)           119.9214         estimate D2E/DX2                !
 ! A72   A(42,41,43)           120.0191         estimate D2E/DX2                !
 ! A73   A(39,43,41)           121.1885         estimate D2E/DX2                !
 ! A74   A(39,43,44)           119.389          estimate D2E/DX2                !
 ! A75   A(41,43,44)           119.4224         estimate D2E/DX2                !
 ! D1    D(4,1,6,7)              3.9977         estimate D2E/DX2                !
 ! D2    D(4,1,6,19)          -175.9952         estimate D2E/DX2                !
 ! D3    D(34,1,6,7)          -110.5362         estimate D2E/DX2                !
 ! D4    D(34,1,6,19)           69.4709         estimate D2E/DX2                !
 ! D5    D(45,1,6,7)           133.8622         estimate D2E/DX2                !
 ! D6    D(45,1,6,19)          -46.1307         estimate D2E/DX2                !
 ! D7    D(4,1,34,35)          139.5545         estimate D2E/DX2                !
 ! D8    D(4,1,34,37)          -39.8804         estimate D2E/DX2                !
 ! D9    D(6,1,34,35)         -108.7721         estimate D2E/DX2                !
 ! D10   D(6,1,34,37)           71.7929         estimate D2E/DX2                !
 ! D11   D(45,1,34,35)           8.8306         estimate D2E/DX2                !
 ! D12   D(45,1,34,37)        -170.6044         estimate D2E/DX2                !
 ! D13   D(1,6,19,18)          175.9611         estimate D2E/DX2                !
 ! D14   D(1,6,19,20)           -4.9311         estimate D2E/DX2                !
 ! D15   D(7,6,19,18)           -4.0318         estimate D2E/DX2                !
 ! D16   D(7,6,19,20)          175.076          estimate D2E/DX2                !
 ! D17   D(3,8,9,10)           179.5046         estimate D2E/DX2                !
 ! D18   D(3,8,9,32)            -1.0871         estimate D2E/DX2                !
 ! D19   D(5,8,9,10)            -0.6083         estimate D2E/DX2                !
 ! D20   D(5,8,9,32)           178.8            estimate D2E/DX2                !
 ! D21   D(8,9,10,11)           -0.8734         estimate D2E/DX2                !
 ! D22   D(8,9,10,12)          179.1832         estimate D2E/DX2                !
 ! D23   D(32,9,10,11)         179.7397         estimate D2E/DX2                !
 ! D24   D(32,9,10,12)          -0.2036         estimate D2E/DX2                !
 ! D25   D(8,9,32,30)         -179.3295         estimate D2E/DX2                !
 ! D26   D(8,9,32,33)           -0.0604         estimate D2E/DX2                !
 ! D27   D(10,9,32,30)           0.0518         estimate D2E/DX2                !
 ! D28   D(10,9,32,33)         179.3208         estimate D2E/DX2                !
 ! D29   D(9,10,12,13)        -178.4811         estimate D2E/DX2                !
 ! D30   D(9,10,12,28)           0.3473         estimate D2E/DX2                !
 ! D31   D(11,10,12,13)          1.5756         estimate D2E/DX2                !
 ! D32   D(11,10,12,28)       -179.596          estimate D2E/DX2                !
 ! D33   D(10,12,13,14)         -1.4689         estimate D2E/DX2                !
 ! D34   D(10,12,13,15)        178.5195         estimate D2E/DX2                !
 ! D35   D(28,12,13,14)        179.7583         estimate D2E/DX2                !
 ! D36   D(28,12,13,15)         -0.2533         estimate D2E/DX2                !
 ! D37   D(10,12,28,29)       -178.9065         estimate D2E/DX2                !
 ! D38   D(10,12,28,30)         -0.3548         estimate D2E/DX2                !
 ! D39   D(13,12,28,29)         -0.1316         estimate D2E/DX2                !
 ! D40   D(13,12,28,30)        178.4201         estimate D2E/DX2                !
 ! D41   D(12,13,15,16)         -0.1559         estimate D2E/DX2                !
 ! D42   D(12,13,15,17)        179.8757         estimate D2E/DX2                !
 ! D43   D(14,13,15,16)        179.8325         estimate D2E/DX2                !
 ! D44   D(14,13,15,17)         -0.1359         estimate D2E/DX2                !
 ! D45   D(13,15,17,2)           5.296          estimate D2E/DX2                !
 ! D46   D(13,15,17,18)       -175.0289         estimate D2E/DX2                !
 ! D47   D(16,15,17,2)        -174.6724         estimate D2E/DX2                !
 ! D48   D(16,15,17,18)          5.0028         estimate D2E/DX2                !
 ! D49   D(2,17,18,19)          -1.4274         estimate D2E/DX2                !
 ! D50   D(2,17,18,26)         177.531          estimate D2E/DX2                !
 ! D51   D(15,17,18,19)        178.9061         estimate D2E/DX2                !
 ! D52   D(15,17,18,26)         -2.1355         estimate D2E/DX2                !
 ! D53   D(17,18,19,6)          -2.8366         estimate D2E/DX2                !
 ! D54   D(17,18,19,20)        178.0417         estimate D2E/DX2                !
 ! D55   D(26,18,19,6)         178.176          estimate D2E/DX2                !
 ! D56   D(26,18,19,20)         -0.9457         estimate D2E/DX2                !
 ! D57   D(17,18,26,24)       -179.0245         estimate D2E/DX2                !
 ! D58   D(17,18,26,27)          0.8737         estimate D2E/DX2                !
 ! D59   D(19,18,26,24)         -0.0252         estimate D2E/DX2                !
 ! D60   D(19,18,26,27)        179.873          estimate D2E/DX2                !
 ! D61   D(6,19,20,21)           2.1437         estimate D2E/DX2                !
 ! D62   D(6,19,20,22)        -177.8139         estimate D2E/DX2                !
 ! D63   D(18,19,20,21)       -178.7608         estimate D2E/DX2                !
 ! D64   D(18,19,20,22)          1.2816         estimate D2E/DX2                !
 ! D65   D(19,20,22,23)        179.3127         estimate D2E/DX2                !
 ! D66   D(19,20,22,24)         -0.6291         estimate D2E/DX2                !
 ! D67   D(21,20,22,23)         -0.6448         estimate D2E/DX2                !
 ! D68   D(21,20,22,24)        179.4134         estimate D2E/DX2                !
 ! D69   D(20,22,24,25)        179.7347         estimate D2E/DX2                !
 ! D70   D(20,22,24,26)         -0.3453         estimate D2E/DX2                !
 ! D71   D(23,22,24,25)         -0.2071         estimate D2E/DX2                !
 ! D72   D(23,22,24,26)        179.7129         estimate D2E/DX2                !
 ! D73   D(22,24,26,18)          0.6732         estimate D2E/DX2                !
 ! D74   D(22,24,26,27)       -179.227          estimate D2E/DX2                !
 ! D75   D(25,24,26,18)       -179.4067         estimate D2E/DX2                !
 ! D76   D(25,24,26,27)          0.6931         estimate D2E/DX2                !
 ! D77   D(12,28,30,31)       -179.7554         estimate D2E/DX2                !
 ! D78   D(12,28,30,32)          0.2096         estimate D2E/DX2                !
 ! D79   D(29,28,30,31)         -1.1727         estimate D2E/DX2                !
 ! D80   D(29,28,30,32)        178.7922         estimate D2E/DX2                !
 ! D81   D(28,30,32,9)          -0.053          estimate D2E/DX2                !
 ! D82   D(28,30,32,33)       -179.2873         estimate D2E/DX2                !
 ! D83   D(31,30,32,9)         179.912          estimate D2E/DX2                !
 ! D84   D(31,30,32,33)          0.6776         estimate D2E/DX2                !
 ! D85   D(1,34,35,36)          -1.1531         estimate D2E/DX2                !
 ! D86   D(1,34,35,39)         178.9125         estimate D2E/DX2                !
 ! D87   D(37,34,35,36)        178.2826         estimate D2E/DX2                !
 ! D88   D(37,34,35,39)         -1.6519         estimate D2E/DX2                !
 ! D89   D(1,34,37,38)           1.1257         estimate D2E/DX2                !
 ! D90   D(1,34,37,41)        -178.9289         estimate D2E/DX2                !
 ! D91   D(35,34,37,38)       -178.3026         estimate D2E/DX2                !
 ! D92   D(35,34,37,41)          1.6429         estimate D2E/DX2                !
 ! D93   D(34,35,39,40)       -179.7977         estimate D2E/DX2                !
 ! D94   D(34,35,39,43)          0.1548         estimate D2E/DX2                !
 ! D95   D(36,35,39,40)          0.2678         estimate D2E/DX2                !
 ! D96   D(36,35,39,43)       -179.7797         estimate D2E/DX2                !
 ! D97   D(34,37,41,42)        179.8188         estimate D2E/DX2                !
 ! D98   D(34,37,41,43)         -0.1827         estimate D2E/DX2                !
 ! D99   D(38,37,41,42)         -0.2358         estimate D2E/DX2                !
 ! D100  D(38,37,41,43)        179.7627         estimate D2E/DX2                !
 ! D101  D(35,39,43,41)          1.3319         estimate D2E/DX2                !
 ! D102  D(35,39,43,44)       -178.5857         estimate D2E/DX2                !
 ! D103  D(40,39,43,41)       -178.7156         estimate D2E/DX2                !
 ! D104  D(40,39,43,44)          1.3668         estimate D2E/DX2                !
 ! D105  D(37,41,43,39)         -1.3177         estimate D2E/DX2                !
 ! D106  D(37,41,43,44)        178.5999         estimate D2E/DX2                !
 ! D107  D(42,41,43,39)        178.6807         estimate D2E/DX2                !
 ! D108  D(42,41,43,44)         -1.4017         estimate D2E/DX2                !
 --------------------------------------------------------------------------------
 Trust Radius=3.00D-01 FncErr=1.00D-07 GrdErr=1.00D-06 EigMax=2.50D+02 EigMin=1.00D-04
 Number of steps in this run=    240 maximum allowed number of steps=    270.
 GradGradGradGradGradGradGradGradGradGradGradGradGradGradGradGradGradGrad

                          Input orientation:                          
 ---------------------------------------------------------------------
 Center     Atomic      Atomic             Coordinates (Angstroms)
 Number     Number       Type             X           Y           Z
 ---------------------------------------------------------------------
      1         16           0        3.897700    1.502100    2.678300
      2          8           0        5.920800    2.054900    6.066700
      3          8           0       11.135700    3.916100   12.427900
      4          8           0        5.145700    1.904100    2.107000
      5          8           0       11.194600    3.978900   10.294500
      6          7           0        4.131800    1.629200    4.276600
      7          1           0        4.893000    1.949300    4.517600
      8          7           0       10.619200    3.757700   11.339600
      9          6           0        9.224700    3.270000   11.287100
     10          6           0        8.638800    3.101500   10.050200
     11          1           0        9.111900    3.303700    9.275100
     12          6           0        7.331600    2.626800    9.973600
     13          6           0        6.736300    2.421700    8.652000
     14          1           0        7.271000    2.645200    7.924800
     15          6           0        5.538300    1.960000    8.367000
     16          1           0        4.960900    1.718100    9.055100
     17          6           0        5.105200    1.822900    6.961600
     18          6           0        3.713100    1.405700    6.647400
     19          6           0        3.257500    1.286200    5.319300
     20          6           0        1.957400    0.852900    5.065900
     21          1           0        1.663700    0.758000    4.187700
     22          6           0        1.104000    0.565000    6.112000
     23          1           0        0.234900    0.285600    5.932800
     24          6           0        1.523100    0.687500    7.415700
     25          1           0        0.941700    0.495400    8.115900
     26          6           0        2.812000    1.095600    7.675500
     27          1           0        3.087800    1.163700    8.593600
     28          6           0        6.656300    2.344300   11.161800
     29          1           0        5.773000    2.005900   11.146300
     30          6           0        7.270200    2.523500   12.381500
     31          1           0        6.805700    2.326700   13.163600
     32          6           0        8.569700    2.992000   12.458000
     33          1           0        9.046800    3.123700   13.311400
     34          6           0        2.681400    2.698800    2.253100
     35          6           0        1.410500    2.273900    1.899400
     36          1           0        1.212800    1.365900    1.873000
     37          6           0        2.990100    4.042500    2.259700
     38          1           0        3.847400    4.331100    2.473400
     39          6           0        0.444800    3.198800    1.586800
     40          1           0       -0.408900    2.915500    1.352100
     41          6           0        1.987600    4.959700    1.937400
     42          1           0        2.172500    5.871500    1.937900
     43          6           0        0.731800    4.515600    1.620500
     44          1           0        0.064100    5.133500    1.426000
     45          8           0        3.348300    0.219000    2.365500
 ---------------------------------------------------------------------
                    Distance matrix (angstroms):
                    1          2          3          4          5
     1  S    0.000000
     2  O    3.984944   0.000000
     3  O   12.380256   8.433511   0.000000
     4  O    1.430207   4.037666  12.101621   0.000000
     5  O   10.834472   7.027733   2.135137  10.388895   0.000000
     6  N    1.620346   2.566359  10.987639   2.410545   9.571800
     7  H    2.138606   1.862051  10.267057   2.424230   8.786468
     8  N   11.193052   7.264844   1.215014  10.892013   1.213363
     9  C   10.276859   6.296412   2.317497  10.137956   2.316959
    10  C    8.909603   4.934690   3.542815   8.759563   2.713232
    11  H    8.599501   4.694300   3.796175   8.310913   2.415101
    12  C    8.141131   4.193005   4.707129   8.196575   4.105353
    13  C    6.677455   2.735573   5.987101   6.755364   4.999912
    14  H    6.341261   2.371504   6.068690   6.238023   4.773769
    15  C    5.938228   2.333815   7.186663   6.272548   6.307531
    16  H    6.468433   3.156799   7.371237   6.953045   6.745839
    17  C    4.461796   1.232831   8.404097   4.855448   7.268931
    18  C    3.974560   2.373313   9.737108   4.787064   8.711805
    19  C    2.726050   2.871006  10.932273   3.777032   9.746836
    20  C    3.144338   4.260862  12.158266   4.474971  11.065080
    21  H    2.796914   4.830682  12.945782   4.215113  11.768826
    22  C    4.524733   5.042164  12.318907   5.845387  11.444135
    23  H    5.048539   5.956325  13.198269   6.432126  12.360417
    24  C    5.361460   4.798890  11.311414   6.541073  10.614081
    25  H    6.270476   5.605595  11.584998   7.467592  11.045498
    26  C    5.129912   3.629481   9.991222   6.091635   9.243406
    27  H    5.980069   3.899404   9.329858   6.845372   8.748635
    28  C    8.960410   5.156041   4.913104   9.190489   4.901050
    29  H    8.687784   5.081986   5.835230   9.061612   5.831984
    30  C   10.323231   6.474347   4.108963  10.510115   4.677037
    31  H   10.912284   7.157018   4.670797  11.188503   5.497631
    32  C   10.940289   6.981658   2.727494  10.956756   3.541864
    33  H   11.925000   7.962405   2.402493  11.926633   3.800802
    34  C    1.758486   5.044984  13.284712   2.593389  11.780380
    35  C    2.718184   6.144685  14.426561   3.759198  13.004359
    36  H    2.806376   6.342484  14.709636   3.976445  13.318625
    37  C    2.729944   5.199308  13.029162   3.040178  11.483722
    38  H    2.836857   4.732006  12.344376   2.776718  10.736619
    39  C    3.999085   7.166909  15.242681   4.903602  13.856074
    40  H    4.722638   7.939344  16.029733   5.696173  14.688041
    41  C    4.019006   6.399925  13.958059   4.397619  12.472848
    42  H    4.755645   6.757454  13.935661   4.960723  12.442387
    43  C    4.497004   7.262882  15.013342   5.151614  13.601342
    44  H    5.426952   8.081758  15.655804   6.059327  14.278355
    45  O    1.430395   4.866946  13.250058   2.477303  11.771589
                    6          7          8          9         10
     6  N    0.000000
     7  H    0.860215   0.000000
     8  N    9.823586   9.088419   0.000000
     9  C    8.819125   8.144569   1.478255   0.000000
    10  C    7.470955   6.779989   2.452577   1.378982   0.000000
    11  H    7.251920   6.501332   2.596195   2.015441   0.930316
    12  C    6.609821   6.014459   3.735399   2.392241   1.392831
    13  C    5.153213   4.551283   4.907647   3.722298   2.456949
    14  H    4.918963   4.212858   4.910087   3.938576   2.568348
    15  C    4.338092   3.903128   6.154967   4.881867   3.708003
    16  H    4.850708   4.543894   6.433915   5.056699   4.053513
    17  C    2.862560   2.456449   7.301680   6.146082   4.864216
    18  C    2.417841   2.494737   8.674264   7.441785   6.222323
    19  C    1.403308   1.938372   9.825831   8.669347   7.391557
    20  C    2.440011   3.181269  11.082597   9.867084   8.633687
    21  H    2.618857   3.457804  11.846892  10.671473   9.408130
    22  C    3.697132   4.337617  11.316367  10.002222   8.872230
    23  H    4.442307   5.144763  12.211579  10.880794   9.772810
    24  C    4.188802   4.620319  10.371218   8.998427   7.962485
    25  H    5.118834   5.538444  10.709288   9.293170   8.353360
    26  C    3.684986   3.877073   9.025784   7.674268   6.604122
    27  H    4.465772   4.526554   8.425636   7.025168   6.057256
    28  C    7.368205   6.885539   4.211162   2.733002   2.395686
    29  H    7.073063   6.687097   5.156726   3.678588   3.258003
    30  C    8.737204   8.235394   3.718146   2.361153   2.764437
    31  H    9.306719   8.863079   4.462905   3.203534   3.695109
    32  C    9.406779   8.812224   2.457146   1.370152   2.411279
    33  H   10.393188   9.796131   2.600460   2.037362   3.286698
    34  C    2.709660   3.252827  12.111747  11.169342   9.820771
    35  C    3.670448   4.368998  13.270991  12.254911  10.925602
    36  H    3.790406   4.569260  13.557934  12.507654  11.181430
    37  C    3.345950   3.619479  11.862920  10.998225   9.668774
    38  H    3.260779   3.308323  11.171194  10.378950   9.048609
    39  C    4.826245   5.471501  14.104889  13.083865  11.780503
    40  H    5.552047   6.250126  14.902297  13.843271  12.551988
    41  C    4.600183   4.915413  12.819933  11.943517  10.654055
    42  H    5.225465   5.425829  12.814322  11.996202  10.737567
    43  C    5.190970   5.682840  13.885100  12.927646  11.643890
    44  H    6.078834   6.558612  14.545873  13.587881  12.330099
    45  O    2.500968   3.164107  12.079853  11.110159   9.764876
                   11         12         13         14         15
    11  H    0.000000
    12  C    2.028685   0.000000
    13  C    2.609531   1.463924   0.000000
    14  H    2.376099   2.049779   0.929880   0.000000
    15  C    3.924384   2.498342   1.315141   1.915017   0.000000
    16  H    4.448969   2.699925   1.951817   2.733799   0.930262
    17  C    4.857849   3.830830   2.424150   2.508908   1.476997
    18  C    6.297162   5.064409   3.767017   3.978286   2.568195
    19  C    7.347970   6.329140   4.949576   4.974303   3.865816
    20  C    8.655094   7.490946   6.177308   6.294441   4.994575
    21  H    9.372188   8.312289   6.959105   6.997803   5.824421
    22  C    9.035051   7.612225   6.451491   6.756135   5.166630
    23  H    9.953945   8.495436   7.363774   7.683910   6.070832
    24  C    8.239645   6.636446   5.631460   6.093449   4.318108
    25  H    8.716792   6.987470   6.129880   6.687167   4.830821
    26  C    6.864632   5.296473   4.255846   4.727165   2.942460
    27  H    6.429139   4.696264   3.859731   4.487906   2.586579
    28  C    3.241922   1.395584   2.512267   3.308559   3.034554
    29  H    4.041525   2.046943   2.705988   3.609816   2.789570
    30  C    3.694630   2.410897   3.768897   4.458361   4.408313
    31  H    4.625313   3.246957   4.513134   5.269058   4.974751
    32  C    3.243762   2.799733   4.262890   4.728297   5.195257
    33  H    4.040836   3.785463   5.247973   5.691914   6.173399
    34  C    9.540740   9.013083   7.580562   7.296265   6.788776
    35  C   10.713216  10.018816   8.601372   8.413606   7.679005
    36  H   10.997360  10.229824   8.807872   8.658099   7.825276
    37  C    9.340134   8.964211   7.584359   7.236844   6.937524
    38  H    8.662196   8.443772   7.082842   6.654401   6.573871
    39  C   11.586181  10.867089   9.492308   9.331330   8.570267
    40  H   12.392347  11.590037  10.226742  10.112087   9.246134
    41  C   10.360494   9.928810   8.606826   8.313855   7.933815
    42  H   10.420335  10.085478   8.820914   8.499805   8.243893
    43  C   11.414363  10.811994   9.480529   9.273820   8.668841
    44  H   12.116898  11.496154  10.202313  10.018256   9.392308
    45  O    9.511942   8.918933   7.473320   7.223561   6.621570
                   16         17         18         19         20
    16  H    0.000000
    17  C    2.101083   0.000000
    18  C    2.729765   1.486849   0.000000
    19  C    4.128476   2.529662   1.409149   0.000000
    20  C    5.067869   3.800424   2.426770   1.393636   0.000000
    21  H    5.956921   4.546697   3.266448   2.024775   0.930860
    22  C    4.986698   4.279455   2.792997   2.405424   1.380400
    23  H    5.842593   5.209755   3.723325   3.242483   2.010062
    24  C    3.945661   3.785073   2.429444   2.785943   2.395315
    25  H    4.304772   4.519889   3.265853   3.716082   3.234494
    26  C    2.628417   2.509459   1.401832   2.405510   2.756675
    27  H    2.007198   2.677288   2.058460   3.280982   3.717401
    28  C    2.775733   4.507710   5.470211   6.841507   7.839894
    29  H    2.261737   4.241599   4.984328   6.387459   7.270452
    30  C    4.128737   5.878212   6.839762   8.216285   9.194278
    31  H    4.544607   6.450606   7.271401   8.672105   9.552531
    32  C    5.121131   6.601513   7.737311   9.060368  10.146004
    33  H    6.065178   7.586056   8.706824  10.038230  11.108753
    34  C    7.240518   5.367679   4.695358   3.424750   3.441419
    35  C    8.007390   6.283317   5.347826   4.010321   3.513554
    36  H    8.108937   6.422887   5.389618   4.008009   3.318465
    37  C    7.447439   5.613211   5.169851   4.126723   4.372045
    38  H    7.168433   5.293115   5.098851   4.209340   4.731916
    39  C    8.852296   7.245751   6.285433   5.049839   4.460420
    40  H    9.465977   7.941383   6.878269   5.642321   4.862716
    41  C    8.367206   6.693394   6.147550   5.152135   5.162774
    42  H    8.699451   7.087274   6.670548   5.799661   5.917516
    43  C    8.999143   7.409765   6.620374   5.521712   5.175736
    44  H    9.687454   8.186307   7.380699   6.336979   5.929333
    45  O    7.042622   5.175261   4.458251   3.141989   3.102997
                   21         22         23         24         25
    21  H    0.000000
    22  C    2.013317   0.000000
    23  H    2.304345   0.930329   0.000000
    24  C    3.231830   1.374876   2.004988   0.000000
    25  H    4.002624   2.011666   2.304237   0.930166   0.000000
    26  C    3.687454   2.375570   3.214739   1.376701   2.013011
    27  H    4.648076   3.232993   3.998744   2.015565   2.297949
    28  C    8.722412   7.713263   8.533174   6.567191   6.734433
    29  H    8.177146   7.015692   7.798113   5.806652   5.899694
    30  C   10.084056   9.009127   9.802519   7.814040   7.896736
    31  H   10.462684   9.237859   9.981281   7.976916   7.951065
    32  C   11.003702  10.094490  10.925737   8.966052   9.125417
    33  H   11.972828  11.021179  11.838418   9.864097   9.979671
    34  C    2.923199   4.683204   5.034788   5.660338   6.500304
    35  C    2.756516   4.556345   4.647977   5.740985   6.482878
    36  H    2.435301   4.315368   4.313388   5.592677   6.309126
    37  C    4.032922   5.521829   5.932713   6.323958   7.146533
    38  H    4.524866   5.911782   6.433014   6.565403   7.415760
    39  C    3.769337   5.277204   5.236269   6.437813   7.084097
    40  H    4.122027   5.519997   5.321059   6.742689   7.309582
    41  C    4.777347   6.125473   6.393934   6.962702   7.694007
    42  H    5.609667   6.835477   7.135531   7.569800   8.281606
    43  C    4.645268   5.993275   6.061002   6.990340   7.641746
    44  H    5.415783   6.626551   6.621371   7.600796   8.187607
    45  O    2.539451   4.380966   4.735327   5.390303   6.239809
                   26         27         28         29         30
    26  C    0.000000
    27  H    0.961047   0.000000
    28  C    5.337807   4.552325   0.000000
    29  H    4.652163   3.799457   0.946030   0.000000
    30  C    6.637837   5.804284   1.377191   2.008790   0.000000
    31  H    6.898151   6.005019   2.007444   2.288860   0.930683
    32  C    7.721383   6.951798   2.400156   3.242604   1.383490
    33  H    8.645767   7.849135   3.307980   4.081042   2.093146
    34  C    5.655946   6.536332   9.761682   9.440715  11.120805
    35  C    6.059367   6.989864  10.644972  10.227824  12.011361
    36  H    6.024907   6.980184  10.810678  10.353701  12.184445
    37  C    6.168211   6.958112   9.776108   9.532257  11.094028
    38  H    6.213080   6.932984   9.344816   9.183337  10.637360
    39  C    6.862897   7.760305  11.445240  11.008940  12.789357
    40  H    7.326092   8.230130  12.102625  11.617642  13.445070
    41  C    6.966828   7.741127  10.664269  10.385472  11.954922
    42  H    7.492545   8.203627  10.845549  10.616077  12.093983
    43  C    7.258558   8.087651  11.438997  11.065855  12.748265
    44  H    7.931698   8.733645  12.083979  11.698618  13.370227
    45  O    5.408525   6.304724   9.635074   9.283029  11.000558
                   31         32         33         34         35
    31  H    0.000000
    32  C    2.013006   0.000000
    33  H    2.383188   0.986540   0.000000
    34  C   11.669932  11.785501  12.766552   0.000000
    35  C   12.489723  12.777083  13.757506   1.385940   0.000000
    36  H   12.636507  12.992706  13.974921   2.019377   0.929648
    37  C   11.678947  11.672224  12.635976   1.378720   2.398520
    38  H   11.271625  11.125895  12.081135   2.018041   3.240375
    39  C   13.237972  13.573495  14.541881   2.386700   1.373221
    40  H   13.853111  14.281531  15.247245   3.226254   2.005344
    41  C   12.496973  12.564987  13.511886   2.385937   2.747364
    42  H   12.651027  12.644690  13.570663   3.228677   3.677615
    43  C   13.225986  13.461257  14.413666   2.738957   2.358736
    44  H   13.823840  14.093838  15.032995   3.669076   3.195968
    45  O   11.532345  11.696628  12.677654   2.570369   2.862679
                   36         37         38         39         40
    36  H    0.000000
    37  C    3.236127   0.000000
    38  H    4.011734   0.929473   0.000000
    39  C    2.007799   2.764629   3.694029   0.000000
    40  H    2.302717   3.694194   4.623562   0.929595   0.000000
    41  C    3.676936   1.396474   2.035016   2.367260   3.203832
    42  H    4.607132   2.029105   2.337709   3.201803   3.967962
    43  C    3.196205   2.394226   3.235497   1.348135   1.983319
    44  H    3.964105   3.232153   4.006776   1.978346   2.269078
    45  O    2.473519   3.841699   4.143683   4.232717   4.734411
                   41         42         43         44         45
    41  C    0.000000
    42  H    0.930359   0.000000
    43  C    1.369191   2.003703   0.000000
    44  H    1.997896   2.291732   0.930298   0.000000
    45  O    4.950658   5.789309   5.085457   5.985060   0.000000
 Stoichiometry    C21H16N2O5S
 Framework group  C1[X(C21H16N2O5S)]
 Deg. of freedom   129
 Full point group                 C1      NOp   1
 Largest Abelian subgroup         C1      NOp   1
 Largest concise Abelian subgroup C1      NOp   1
                         Standard orientation:                         
 ---------------------------------------------------------------------
 Center     Atomic      Atomic             Coordinates (Angstroms)
 Number     Number       Type             X           Y           Z
 ---------------------------------------------------------------------
      1         16           0        3.688186   -1.050119   -1.234399
      2          8           0       -0.251346   -0.700809   -0.746705
      3          8           0       -8.590047   -1.377085    0.317635
      4          8           0        3.326134   -2.402463   -1.526933
      5          8           0       -6.969993   -2.679670   -0.169710
      6          7           0        2.288422   -0.341658   -0.829107
      7          1           0        1.603114   -0.860669   -0.798260
      8          7           0       -7.409182   -1.587285    0.123644
      9          6           0       -6.463833   -0.457714    0.248639
     10          6           0       -5.123269   -0.702765    0.037854
     11          1           0       -4.829206   -1.561762   -0.164976
     12          6           0       -4.214498    0.348461    0.132927
     13          6           0       -2.799453    0.077842   -0.126857
     14          1           0       -2.582627   -0.804577   -0.324341
     15          6           0       -1.797388    0.929506   -0.115422
     16          1           0       -1.955818    1.826452    0.073721
     17          6           0       -0.423109    0.470227   -0.401676
     18          6           0        0.719402    1.413830   -0.279203
     19          6           0        2.046224    1.006046   -0.522012
     20          6           0        3.085234    1.930893   -0.436356
     21          1           0        3.959033    1.663632   -0.613974
     22          6           0        2.823353    3.240801   -0.088416
     23          1           0        3.524807    3.848576   -0.024508
     24          6           0        1.538058    3.657452    0.165950
     25          1           0        1.369070    4.540750    0.403515
     26          6           0        0.502878    2.755588    0.064215
     27          1           0       -0.388886    3.070433    0.235215
     28          6           0       -4.698407    1.619046    0.447727
     29          1           0       -4.111286    2.358609    0.505256
     30          6           0       -6.043804    1.830435    0.652364
     31          1           0       -6.349070    2.685206    0.858152
     32          6           0       -6.947248    0.787198    0.554939
     33          1           0       -7.918695    0.900368    0.684334
     34          6           0        4.690054   -1.043860    0.210763
     35          6           0        5.788363   -0.200461    0.267553
     36          1           0        5.998241    0.341512   -0.458025
     37          6           0        4.394698   -1.875452    1.270050
     38          1           0        3.673061   -2.459699    1.227432
     39          6           0        6.566186   -0.169218    1.398814
     40          1           0        7.301547    0.397998    1.439529
     41          6           0        5.203566   -1.821630    2.407140
     42          1           0        5.021557   -2.371810    3.134974
     43          6           0        6.265207   -0.958044    2.449828
     44          1           0        6.787730   -0.913820    3.218248
     45          8           0        4.367561   -0.263197   -2.216861
 ---------------------------------------------------------------------
 Rotational constants (GHZ):           0.3398934           0.0534478           0.0500182
 Standard basis: 6-311++G(d,p) (5D, 7F)
 There are   787 symmetry adapted cartesian basis functions of A   symmetry.
 There are   758 symmetry adapted basis functions of A   symmetry.
   758 basis functions,  1202 primitive gaussians,   787 cartesian basis functions
   106 alpha electrons      106 beta electrons
       nuclear repulsion energy      2683.0984141196 Hartrees.
 NAtoms=   45 NActive=   45 NUniq=   45 SFac= 1.00D+00 NAtFMM=   60 NAOKFM=F Big=F
 Integral buffers will be    131072 words long.
 Raffenetti 2 integral format.
 Two-electron integral symmetry is turned on.
 R6APFD:  NTU= -4 IXU= 1 FactS= 1.050
 Nuclear repulsion after empirical dispersion term =     2683.0576319420 Hartrees.
 One-electron integrals computed using PRISM.
 NBasis=   758 RedAO= T EigKep=  1.07D-06  NBF=   758
 NBsUse=   750 1.00D-06 EigRej=  7.92D-07 NBFU=   750
 ExpMin= 3.60D-02 ExpMax= 9.34D+04 ExpMxC= 3.17D+03 IAcc=3 IRadAn=         5 AccDes= 0.00D+00
 Harris functional with IExCor= 1009 and IRadAn=       5 diagonalized for initial guess.
 HarFok:  IExCor= 1009 AccDes= 0.00D+00 IRadAn=         5 IDoV= 1 UseB2=F ITyADJ=14
 ICtDFT=  3500011 ScaDFX=  1.000000  1.000000  1.000000  1.000000
 FoFCou: FMM=F IPFlag=           0 FMFlag=      100000 FMFlg1=           0
         NFxFlg=           0 DoJE=T BraDBF=F KetDBF=T FulRan=T
         wScrn=  0.000000 ICntrl=       500 IOpCl=  0 I1Cent=   200000004 NGrid=           0
         NMat0=    1 NMatS0=      1 NMatT0=    0 NMatD0=    1 NMtDS0=    0 NMtDT0=    0
 Petite list used in FoFCou.
 Requested convergence on RMS density matrix=1.00D-08 within  32 cycles.
 Requested convergence on MAX density matrix=1.00D-06.
 Requested convergence on             energy=1.00D-06.
 No special actions if energy rises.
 SCF Done:  E(RM08HX) =  -1693.12338731     A.U. after   17 cycles
            NFock= 17  Conv=0.57D-08     -V/T= 2.0003
 QCSCF skips out because SCF is already converged.

 **********************************************************************

            Population analysis using the SCF Density.

 **********************************************************************

 Orbital symmetries:
       Occupied  (A) (A) (A) (A) (A) (A) (A) (A) (A) (A) (A) (A)
                 (A) (A) (A) (A) (A) (A) (A) (A) (A) (A) (A) (A)
                 (A) (A) (A) (A) (A) (A) (A) (A) (A) (A) (A) (A)
                 (A) (A) (A) (A) (A) (A) (A) (A) (A) (A) (A) (A)
                 (A) (A) (A) (A) (A) (A) (A) (A) (A) (A) (A) (A)
                 (A) (A) (A) (A) (A) (A) (A) (A) (A) (A) (A) (A)
                 (A) (A) (A) (A) (A) (A) (A) (A) (A) (A) (A) (A)
                 (A) (A) (A) (A) (A) (A) (A) (A) (A) (A) (A) (A)
                 (A) (A) (A) (A) (A) (A) (A) (A) (A) (A)
       Virtual   (A) (A) (A) (A) (A) (A) (A) (A) (A) (A) (A) (A)
                 (A) (A) (A) (A) (A) (A) (A) (A) (A) (A) (A) (A)
                 (A) (A) (A) (A) (A) (A) (A) (A) (A) (A) (A) (A)
                 (A) (A) (A) (A) (A) (A) (A) (A) (A) (A) (A) (A)
                 (A) (A) (A) (A) (A) (A) (A) (A) (A) (A) (A) (A)
                 (A) (A) (A) (A) (A) (A) (A) (A) (A) (A) (A) (A)
                 (A) (A) (A) (A) (A) (A) (A) (A) (A) (A) (A) (A)
                 (A) (A) (A) (A) (A) (A) (A) (A) (A) (A) (A) (A)
                 (A) (A) (A) (A) (A) (A) (A) (A) (A) (A) (A) (A)
                 (A) (A) (A) (A) (A) (A) (A) (A) (A) (A) (A) (A)
                 (A) (A) (A) (A) (A) (A) (A) (A) (A) (A) (A) (A)
                 (A) (A) (A) (A) (A) (A) (A) (A) (A) (A) (A) (A)
                 (A) (A) (A) (A) (A) (A) (A) (A) (A) (A) (A) (A)
                 (A) (A) (A) (A) (A) (A) (A) (A) (A) (A) (A) (A)
                 (A) (A) (A) (A) (A) (A) (A) (A) (A) (A) (A) (A)
                 (A) (A) (A) (A) (A) (A) (A) (A) (A) (A) (A) (A)
                 (A) (A) (A) (A) (A) (A) (A) (A) (A) (A) (A) (A)
                 (A) (A) (A) (A) (A) (A) (A) (A) (A) (A) (A) (A)
                 (A) (A) (A) (A) (A) (A) (A) (A) (A) (A) (A) (A)
                 (A) (A) (A) (A) (A) (A) (A) (A) (A) (A) (A) (A)
                 (A) (A) (A) (A) (A) (A) (A) (A) (A) (A) (A) (A)
                 (A) (A) (A) (A) (A) (A) (A) (A) (A) (A) (A) (A)
                 (A) (A) (A) (A) (A) (A) (A) (A) (A) (A) (A) (A)
                 (A) (A) (A) (A) (A) (A) (A) (A) (A) (A) (A) (A)
                 (A) (A) (A) (A) (A) (A) (A) (A) (A) (A) (A) (A)
                 (A) (A) (A) (A) (A) (A) (A) (A) (A) (A) (A) (A)
                 (A) (A) (A) (A) (A) (A) (A) (A) (A) (A) (A) (A)
                 (A) (A) (A) (A) (A) (A) (A) (A) (A) (A) (A) (A)
                 (A) (A) (A) (A) (A) (A) (A) (A) (A) (A) (A) (A)
                 (A) (A) (A) (A) (A) (A) (A) (A) (A) (A) (A) (A)
                 (A) (A) (A) (A) (A) (A) (A) (A) (A) (A) (A) (A)
                 (A) (A) (A) (A) (A) (A) (A) (A) (A) (A) (A) (A)
                 (A) (A) (A) (A) (A) (A) (A) (A) (A) (A) (A) (A)
                 (A) (A) (A) (A) (A) (A) (A) (A) (A) (A) (A) (A)
                 (A) (A) (A) (A) (A) (A) (A) (A) (A) (A) (A) (A)
                 (A) (A) (A) (A) (A) (A) (A) (A) (A) (A) (A) (A)
                 (A) (A) (A) (A) (A) (A) (A) (A) (A) (A) (A) (A)
                 (A) (A) (A) (A) (A) (A) (A) (A) (A) (A) (A) (A)
                 (A) (A) (A) (A) (A) (A) (A) (A) (A) (A) (A) (A)
                 (A) (A) (A) (A) (A) (A) (A) (A) (A) (A) (A) (A)
                 (A) (A) (A) (A) (A) (A) (A) (A) (A) (A) (A) (A)
                 (A) (A) (A) (A) (A) (A) (A) (A) (A) (A) (A) (A)
                 (A) (A) (A) (A) (A) (A) (A) (A) (A) (A) (A) (A)
                 (A) (A) (A) (A) (A) (A) (A) (A) (A) (A) (A) (A)
                 (A) (A) (A) (A) (A) (A) (A) (A) (A) (A) (A) (A)
                 (A) (A) (A) (A) (A) (A) (A) (A) (A) (A) (A) (A)
                 (A) (A) (A) (A) (A) (A) (A) (A) (A) (A) (A) (A)
                 (A) (A) (A) (A) (A) (A) (A) (A) (A) (A) (A) (A)
                 (A) (A) (A) (A) (A) (A) (A) (A) (A) (A) (A) (A)
                 (A) (A) (A) (A) (A) (A) (A) (A) (A) (A) (A) (A)
                 (A) (A) (A) (A) (A) (A) (A) (A) (A) (A) (A) (A)
                 (A) (A) (A) (A) (A) (A) (A) (A) (A) (A) (A) (A)
                 (A) (A) (A) (A) (A) (A) (A) (A) (A) (A) (A) (A)
                 (A) (A) (A) (A) (A) (A) (A) (A)
 The electronic state is 1-A.
 Alpha  occ. eigenvalues --  -90.09361 -19.65923 -19.65877 -19.61882 -19.60836
 Alpha  occ. eigenvalues --  -19.60512 -15.00085 -14.77693 -10.65095 -10.62184
 Alpha  occ. eigenvalues --  -10.62050 -10.58812 -10.58083 -10.57439 -10.57175
 Alpha  occ. eigenvalues --  -10.56783 -10.56515 -10.56088 -10.56052 -10.55657
 Alpha  occ. eigenvalues --  -10.55045 -10.54792 -10.54708 -10.54645 -10.54183
 Alpha  occ. eigenvalues --  -10.54130 -10.53662 -10.53553 -10.53492  -8.43039
 Alpha  occ. eigenvalues --   -6.37960  -6.37934  -6.37787  -1.39087  -1.27286
 Alpha  occ. eigenvalues --   -1.19592  -1.18837  -1.14329  -1.09618  -1.04077
 Alpha  occ. eigenvalues --   -1.01573  -1.00305  -0.97003  -0.93803  -0.91759
 Alpha  occ. eigenvalues --   -0.91410  -0.89949  -0.89575  -0.89231  -0.83214
 Alpha  occ. eigenvalues --   -0.81097  -0.79777  -0.76819  -0.75947  -0.75695
 Alpha  occ. eigenvalues --   -0.75056  -0.72228  -0.70786  -0.68576  -0.68499
 Alpha  occ. eigenvalues --   -0.67790  -0.65548  -0.64485  -0.64073  -0.63752
 Alpha  occ. eigenvalues --   -0.63228  -0.61918  -0.59688  -0.58843  -0.58625
 Alpha  occ. eigenvalues --   -0.57607  -0.57474  -0.57136  -0.56343  -0.55700
 Alpha  occ. eigenvalues --   -0.54482  -0.53909  -0.53224  -0.52978  -0.52562
 Alpha  occ. eigenvalues --   -0.50674  -0.50054  -0.48732  -0.48574  -0.48329
 Alpha  occ. eigenvalues --   -0.47657  -0.47199  -0.46815  -0.45941  -0.45793
 Alpha  occ. eigenvalues --   -0.43589  -0.42338  -0.41177  -0.41131  -0.40803
 Alpha  occ. eigenvalues --   -0.39867  -0.39587  -0.39262  -0.39016  -0.36330
 Alpha  occ. eigenvalues --   -0.35959  -0.34931  -0.34482  -0.33980  -0.32792
 Alpha  occ. eigenvalues --   -0.30464
 Alpha virt. eigenvalues --   -0.09153  -0.07378  -0.04325  -0.03745  -0.03412
 Alpha virt. eigenvalues --   -0.02984  -0.02482  -0.02019  -0.01648  -0.01510
 Alpha virt. eigenvalues --   -0.01353  -0.00850  -0.00396  -0.00301   0.00532
 Alpha virt. eigenvalues --    0.00632   0.00734   0.01081   0.01592   0.02090
 Alpha virt. eigenvalues --    0.02265   0.02646   0.02882   0.03240   0.03453
 Alpha virt. eigenvalues --    0.03717   0.04198   0.04430   0.04929   0.05329
 Alpha virt. eigenvalues --    0.05542   0.06044   0.06478   0.06841   0.07260
 Alpha virt. eigenvalues --    0.07505   0.07740   0.07870   0.08271   0.08660
 Alpha virt. eigenvalues --    0.09003   0.09270   0.09503   0.09760   0.09798
 Alpha virt. eigenvalues --    0.09964   0.10177   0.10319   0.10426   0.10587
 Alpha virt. eigenvalues --    0.10784   0.10896   0.11201   0.11403   0.11662
 Alpha virt. eigenvalues --    0.11898   0.12063   0.12503   0.12641   0.12853
 Alpha virt. eigenvalues --    0.12927   0.13020   0.13607   0.13703   0.14078
 Alpha virt. eigenvalues --    0.14299   0.14595   0.14711   0.14930   0.15290
 Alpha virt. eigenvalues --    0.15511   0.15676   0.15794   0.16010   0.16049
 Alpha virt. eigenvalues --    0.16431   0.16656   0.16846   0.16927   0.17108
 Alpha virt. eigenvalues --    0.17349   0.17735   0.17961   0.18092   0.18416
 Alpha virt. eigenvalues --    0.18704   0.19138   0.19290   0.19347   0.19572
 Alpha virt. eigenvalues --    0.19836   0.20043   0.20553   0.21019   0.21327
 Alpha virt. eigenvalues --    0.21492   0.21649   0.21908   0.22009   0.22357
 Alpha virt. eigenvalues --    0.22636   0.22694   0.23076   0.23279   0.23728
 Alpha virt. eigenvalues --    0.23924   0.24071   0.24415   0.24694   0.25292
 Alpha virt. eigenvalues --    0.25430   0.26072   0.26588   0.26741   0.26860
 Alpha virt. eigenvalues --    0.27156   0.27582   0.27853   0.28367   0.28520
 Alpha virt. eigenvalues --    0.28835   0.28915   0.29499   0.30087   0.30150
 Alpha virt. eigenvalues --    0.30338   0.30708   0.30938   0.31299   0.31409
 Alpha virt. eigenvalues --    0.31899   0.32072   0.32485   0.32692   0.32928
 Alpha virt. eigenvalues --    0.33129   0.33668   0.33717   0.34828   0.34961
 Alpha virt. eigenvalues --    0.35014   0.35473   0.35657   0.35871   0.36019
 Alpha virt. eigenvalues --    0.36220   0.36800   0.36908   0.37058   0.37561
 Alpha virt. eigenvalues --    0.37986   0.38511   0.38950   0.39202   0.39368
 Alpha virt. eigenvalues --    0.39735   0.40177   0.40593   0.40941   0.41049
 Alpha virt. eigenvalues --    0.41696   0.42499   0.42890   0.43274   0.44294
 Alpha virt. eigenvalues --    0.44849   0.45363   0.45908   0.46989   0.47476
 Alpha virt. eigenvalues --    0.48150   0.48765   0.49462   0.49884   0.50513
 Alpha virt. eigenvalues --    0.50897   0.51100   0.51341   0.52555   0.53155
 Alpha virt. eigenvalues --    0.53432   0.54246   0.55018   0.55733   0.56089
 Alpha virt. eigenvalues --    0.56955   0.57086   0.57174   0.57574   0.58170
 Alpha virt. eigenvalues --    0.58333   0.58652   0.58768   0.59542   0.59825
 Alpha virt. eigenvalues --    0.59928   0.60244   0.60584   0.60905   0.61272
 Alpha virt. eigenvalues --    0.61733   0.62870   0.62931   0.63199   0.63729
 Alpha virt. eigenvalues --    0.64309   0.65184   0.65619   0.65969   0.66220
 Alpha virt. eigenvalues --    0.66707   0.67222   0.67769   0.68208   0.68534
 Alpha virt. eigenvalues --    0.68648   0.69547   0.69653   0.70627   0.71452
 Alpha virt. eigenvalues --    0.71521   0.72106   0.72207   0.73020   0.73802
 Alpha virt. eigenvalues --    0.73872   0.74853   0.75272   0.75685   0.76327
 Alpha virt. eigenvalues --    0.76615   0.77632   0.77880   0.78601   0.79140
 Alpha virt. eigenvalues --    0.79760   0.80012   0.81196   0.81629   0.81931
 Alpha virt. eigenvalues --    0.82843   0.83320   0.83963   0.84614   0.84807
 Alpha virt. eigenvalues --    0.85312   0.85914   0.86661   0.86981   0.87296
 Alpha virt. eigenvalues --    0.87623   0.88397   0.88660   0.88943   0.89600
 Alpha virt. eigenvalues --    0.90255   0.90508   0.91319   0.91476   0.92085
 Alpha virt. eigenvalues --    0.92407   0.92974   0.93818   0.94309   0.94577
 Alpha virt. eigenvalues --    0.95401   0.95949   0.96823   0.97490   0.98030
 Alpha virt. eigenvalues --    0.98350   0.99906   1.00081   1.00346   1.00716
 Alpha virt. eigenvalues --    1.01499   1.01999   1.02454   1.02489   1.03266
 Alpha virt. eigenvalues --    1.03899   1.04816   1.05340   1.05465   1.06584
 Alpha virt. eigenvalues --    1.06859   1.07373   1.07773   1.08546   1.09083
 Alpha virt. eigenvalues --    1.09173   1.09610   1.10014   1.10313   1.11206
 Alpha virt. eigenvalues --    1.11630   1.12751   1.13023   1.13827   1.14655
 Alpha virt. eigenvalues --    1.15153   1.15509   1.15720   1.15916   1.16867
 Alpha virt. eigenvalues --    1.17694   1.18066   1.18216   1.18656   1.20052
 Alpha virt. eigenvalues --    1.20827   1.22198   1.23224   1.24451   1.25403
 Alpha virt. eigenvalues --    1.25617   1.26086   1.26699   1.27911   1.28396
 Alpha virt. eigenvalues --    1.28583   1.29296   1.30043   1.30284   1.31079
 Alpha virt. eigenvalues --    1.31493   1.32714   1.33790   1.35791   1.37049
 Alpha virt. eigenvalues --    1.37885   1.38810   1.39255   1.42348   1.43256
 Alpha virt. eigenvalues --    1.46498   1.49046   1.49532   1.50367   1.50999
 Alpha virt. eigenvalues --    1.52777   1.53924   1.54409   1.55074   1.55801
 Alpha virt. eigenvalues --    1.56586   1.57341   1.57678   1.58437   1.58680
 Alpha virt. eigenvalues --    1.59833   1.60262   1.60382   1.61169   1.62199
 Alpha virt. eigenvalues --    1.62514   1.63288   1.63379   1.63868   1.64754
 Alpha virt. eigenvalues --    1.65357   1.65663   1.66601   1.68588   1.69220
 Alpha virt. eigenvalues --    1.70279   1.71427   1.71691   1.72248   1.73527
 Alpha virt. eigenvalues --    1.74741   1.75336   1.76233   1.76908   1.77897
 Alpha virt. eigenvalues --    1.78261   1.79231   1.80801   1.81242   1.81910
 Alpha virt. eigenvalues --    1.83415   1.84363   1.84777   1.85735   1.86015
 Alpha virt. eigenvalues --    1.86346   1.86571   1.88266   1.88482   1.88794
 Alpha virt. eigenvalues --    1.90160   1.90754   1.91420   1.91495   1.92546
 Alpha virt. eigenvalues --    1.93147   1.95045   1.95414   1.95775   1.96008
 Alpha virt. eigenvalues --    1.96905   1.98233   1.98369   1.98811   1.98987
 Alpha virt. eigenvalues --    1.99389   1.99968   2.00769   2.01737   2.02272
 Alpha virt. eigenvalues --    2.03212   2.03474   2.04591   2.05191   2.05857
 Alpha virt. eigenvalues --    2.06939   2.08049   2.09609   2.10312   2.11264
 Alpha virt. eigenvalues --    2.12023   2.13444   2.13892   2.15879   2.16331
 Alpha virt. eigenvalues --    2.17342   2.17857   2.19192   2.19873   2.21283
 Alpha virt. eigenvalues --    2.22601   2.23134   2.24228   2.26530   2.28156
 Alpha virt. eigenvalues --    2.28609   2.29984   2.31916   2.32919   2.34005
 Alpha virt. eigenvalues --    2.35155   2.35860   2.36609   2.37275   2.38439
 Alpha virt. eigenvalues --    2.39175   2.39772   2.40605   2.40780   2.43114
 Alpha virt. eigenvalues --    2.45655   2.45745   2.47171   2.47629   2.48468
 Alpha virt. eigenvalues --    2.49855   2.50370   2.51203   2.52382   2.54159
 Alpha virt. eigenvalues --    2.55761   2.56251   2.58858   2.61571   2.62790
 Alpha virt. eigenvalues --    2.64795   2.67982   2.68944   2.71247   2.71814
 Alpha virt. eigenvalues --    2.71992   2.74649   2.75067   2.76165   2.77263
 Alpha virt. eigenvalues --    2.77551   2.78500   2.79689   2.81758   2.82525
 Alpha virt. eigenvalues --    2.83504   2.84613   2.85022   2.85499   2.86205
 Alpha virt. eigenvalues --    2.88578   2.89962   2.90493   2.90932   2.91370
 Alpha virt. eigenvalues --    2.91946   2.92021   2.92418   2.93247   2.94043
 Alpha virt. eigenvalues --    2.94331   2.94500   2.94698   2.95121   2.95469
 Alpha virt. eigenvalues --    2.96269   2.96486   2.96664   2.97236   2.98539
 Alpha virt. eigenvalues --    2.99329   3.00205   3.00594   3.01064   3.01171
 Alpha virt. eigenvalues --    3.01682   3.02413   3.02574   3.03885   3.04640
 Alpha virt. eigenvalues --    3.04942   3.06855   3.07808   3.08044   3.10840
 Alpha virt. eigenvalues --    3.11702   3.12786   3.14499   3.15625   3.16329
 Alpha virt. eigenvalues --    3.17459   3.17743   3.19814   3.20166   3.20285
 Alpha virt. eigenvalues --    3.22306   3.23866   3.25496   3.26112   3.30256
 Alpha virt. eigenvalues --    3.31383   3.33363   3.33963   3.34389   3.37998
 Alpha virt. eigenvalues --    3.39807   3.40306   3.40785   3.43115   3.45535
 Alpha virt. eigenvalues --    3.45649   3.48475   3.50316   3.50603   3.51664
 Alpha virt. eigenvalues --    3.52878   3.57527   3.61233   3.63796   3.64952
 Alpha virt. eigenvalues --    3.66177   3.67370   3.68637   3.70599   3.71628
 Alpha virt. eigenvalues --    3.72236   3.73755   3.75710   3.77910   3.79455
 Alpha virt. eigenvalues --    3.80390   3.82191   3.88569   3.89590   3.89897
 Alpha virt. eigenvalues --    3.90120   3.91822   3.94811   4.02478   4.05173
 Alpha virt. eigenvalues --    4.18196   4.25056   4.27002   4.30322   4.32058
 Alpha virt. eigenvalues --    4.33081   4.34275   4.34872   4.35892   4.40813
 Alpha virt. eigenvalues --    4.42054   4.43573   4.58776   4.62993   4.64898
 Alpha virt. eigenvalues --    4.73080   4.83918   4.91209   4.92649   4.93580
 Alpha virt. eigenvalues --    5.08436   5.11439   5.16638   5.20335   5.22843
 Alpha virt. eigenvalues --    5.24829   5.25528   5.26407   5.29766   5.33262
 Alpha virt. eigenvalues --    5.34614   5.49619   5.51218   5.84741   5.92552
 Alpha virt. eigenvalues --    6.37189   8.43933  17.60677  17.62399  17.83265
 Alpha virt. eigenvalues --   23.75564  23.79290  23.84348  23.92397  24.01616
 Alpha virt. eigenvalues --   24.03320  24.05454  24.09887  24.11252  24.12838
 Alpha virt. eigenvalues --   24.21380  24.21679  24.22316  24.25376  24.28019
 Alpha virt. eigenvalues --   24.28480  24.29818  24.35105  24.39634  24.44898
 Alpha virt. eigenvalues --   24.45917  35.45152  35.81895  49.91112  49.93751
 Alpha virt. eigenvalues --   49.98773  50.02773  50.05346 189.25088
          Condensed to atoms (all electrons):
               1          2          3          4          5          6
     1  S   29.414946   0.054983  -0.000000  -1.095076   0.000000  -4.110307
     2  O    0.054983   7.797935   0.000001  -0.037389  -0.000001   0.085999
     3  O   -0.000000   0.000001   7.896850  -0.000000   0.042938   0.000000
     4  O   -1.095076  -0.037389  -0.000000   9.669106  -0.000000  -0.180051
     5  O    0.000000  -0.000001   0.042938  -0.000000   7.846340   0.000001
     6  N   -4.110307   0.085999   0.000000  -0.180051   0.000001  12.234596
     7  H    0.285907   0.055374   0.000003  -0.240571   0.000020  -0.050656
     8  N   -0.000002  -0.000132   0.062798  -0.000000   0.127910  -0.000001
     9  C    0.001589   0.002750  -0.201056   0.000015  -0.774631   0.002086
    10  C    0.002114  -0.004941  -0.454688  -0.000255  -0.115247  -0.005197
    11  H    0.000288   0.002191   0.013178  -0.000179  -0.042717  -0.000481
    12  C   -0.004571   0.114674   0.145414  -0.000443   0.658293  -0.049402
    13  C   -0.238101   0.033293   0.039915   0.001558   0.178849   0.036850
    14  H   -0.012476  -0.046785  -0.002543   0.004934   0.007179   0.002769
    15  C   -0.308434  -0.523622   0.017170   0.040952   0.016548   0.124746
    16  H   -0.002007   0.021929   0.000477  -0.000528   0.000256   0.007351
    17  C   -1.467593   0.561107   0.002752   0.058567   0.003876   0.880992
    18  C    0.876535   0.222699   0.000159  -0.063623  -0.000362  -0.916879
    19  C   -0.262535   0.047703  -0.000004  -0.424799  -0.000015  -1.647995
    20  C   -0.810822  -0.029071  -0.000000   0.559812   0.000001   0.994989
    21  H    0.273285   0.003578   0.000000   0.009333  -0.000000   0.068009
    22  C   -2.029701  -0.010035   0.000000   0.094768   0.000001   0.490977
    23  H   -0.025310  -0.000460   0.000000   0.000669   0.000000  -0.001388
    24  C   -0.006673   0.007117   0.000002  -0.002412   0.000006  -0.273018
    25  H    0.000566   0.001371  -0.000000  -0.000131   0.000000  -0.006413
    26  C    1.336430  -0.173434   0.000041  -0.003317   0.000188  -0.559493
    27  H   -0.001887  -0.004158  -0.000013  -0.000160  -0.000022   0.004855
    28  C   -0.009750  -0.017059  -0.018450  -0.000069  -0.089949   0.000584
    29  H    0.000257  -0.000818  -0.000292   0.000002   0.000575  -0.001391
    30  C   -0.000277   0.001565   0.412091  -0.000015   0.000352   0.002067
    31  H    0.000014   0.000058   0.007304  -0.000000  -0.000472   0.000051
    32  C   -0.000323  -0.000652  -0.020222   0.000006   0.069133  -0.000569
    33  H   -0.000003  -0.000017  -0.028062   0.000000   0.004426  -0.000010
    34  C   -5.168372  -0.058590  -0.000000   0.844837  -0.000000  -1.303341
    35  C   -0.478408  -0.032495  -0.000000   1.746965  -0.000000   2.513602
    36  H   -0.131917   0.000305   0.000000  -0.036865  -0.000000   0.023511
    37  C    0.685455   0.053952   0.000000  -2.161254   0.000000  -1.209627
    38  H   -0.538857  -0.006980   0.000000   0.111353   0.000000   0.093733
    39  C   -2.665171  -0.004273  -0.000000   0.431730   0.000000   0.540264
    40  H   -0.002557   0.000010  -0.000000   0.001650   0.000000  -0.000004
    41  C    1.641078   0.017231   0.000000  -0.622810   0.000000  -0.076193
    42  H    0.070901   0.000427  -0.000000  -0.010569  -0.000000  -0.007431
    43  C   -0.275586  -0.000860   0.000000   0.023292   0.000000  -0.003522
    44  H   -0.036169  -0.000083   0.000000   0.003319   0.000000  -0.002398
    45  O    1.267496   0.004817   0.000000  -0.741963   0.000000  -0.572836
               7          8          9         10         11         12
     1  S    0.285907  -0.000002   0.001589   0.002114   0.000288  -0.004571
     2  O    0.055374  -0.000132   0.002750  -0.004941   0.002191   0.114674
     3  O    0.000003   0.062798  -0.201056  -0.454688   0.013178   0.145414
     4  O   -0.240571  -0.000000   0.000015  -0.000255  -0.000179  -0.000443
     5  O    0.000020   0.127910  -0.774631  -0.115247  -0.042717   0.658293
     6  N   -0.050656  -0.000001   0.002086  -0.005197  -0.000481  -0.049402
     7  H    0.617612   0.000045   0.005390   0.027271   0.003928  -0.051182
     8  N    0.000045   7.885641  -1.284139   1.115030   0.047352  -0.348121
     9  C    0.005390  -1.284139  29.437533  -6.745919   0.256275 -10.980672
    10  C    0.027271   1.115030  -6.745919  62.068319   2.541993  -3.721187
    11  H    0.003928   0.047352   0.256275   2.541993   0.650038  -0.852586
    12  C   -0.051182  -0.348121 -10.980672  -3.721187  -0.852586  40.161328
    13  C   -0.168535  -0.313551   0.022312 -28.282873  -1.342004   0.837043
    14  H   -0.040512  -0.022212  -0.115419  -2.005049  -0.186393  -0.348907
    15  C   -0.319728  -0.015495   2.360602  -6.321392  -0.235683  -5.597047
    16  H    0.013430   0.001724   0.076189   0.437115   0.026746   0.157198
    17  C   -0.263525   0.001409   0.924928  -4.302579  -0.110122  -7.778919
    18  C    0.297149   0.005584  -0.059026   1.377472   0.138564   1.522910
    19  C    0.197686   0.000138   0.016005   0.720172   0.032984   1.754708
    20  C   -0.258215  -0.000013   0.001273   0.035901  -0.000485   0.047353
    21  H   -0.009402   0.000000  -0.000153  -0.002273  -0.000105  -0.005093
    22  C   -0.257129   0.000001   0.004334   0.027979  -0.000152  -0.035745
    23  H   -0.004932   0.000000   0.000051   0.000094  -0.000004  -0.000864
    24  C    0.140309   0.000042   0.012567   0.148826   0.001451   0.208306
    25  H    0.005283   0.000002  -0.000286   0.006731   0.000267   0.025188
    26  C    0.375724  -0.000124   0.203527   0.778504  -0.004635  -0.285942
    27  H   -0.007535  -0.000180   0.002194  -0.092021  -0.004080  -0.142911
    28  C   -0.007525   0.021411  -3.425258  -0.936570  -0.154448  -4.438139
    29  H   -0.000179   0.002358  -0.131896   0.291026   0.003987   0.042317
    30  C    0.003816  -0.218049   3.036284  -9.659058  -0.016545  -3.736444
    31  H    0.000037  -0.005270   0.146949  -0.080836   0.007753   0.078154
    32  C   -0.001373   0.186990  -5.726452  -0.200085  -0.094908  -3.045279
    33  H   -0.000036   0.012918  -0.369192   0.230068  -0.009815   0.024254
    34  C   -0.082249  -0.000002  -0.000633  -0.013162  -0.001734  -0.003326
    35  C   -0.624750  -0.000000  -0.000238  -0.005857  -0.000608  -0.009658
    36  H    0.003689   0.000000  -0.000005  -0.000076   0.000001  -0.000176
    37  C    0.666501   0.000002   0.000690   0.016944   0.001947   0.011302
    38  H   -0.050378   0.000000   0.000031   0.000641  -0.000030   0.000167
    39  C   -0.150534   0.000000  -0.000002   0.000400   0.000019   0.002392
    40  H    0.000070   0.000000   0.000000   0.000006   0.000001   0.000038
    41  C    0.205473   0.000000   0.000050   0.000824   0.000288   0.001529
    42  H    0.002504   0.000000  -0.000003  -0.000024   0.000006   0.000093
    43  C    0.018626   0.000000   0.000007  -0.000130  -0.000011  -0.001389
    44  H   -0.000723  -0.000000   0.000000  -0.000006  -0.000001  -0.000036
    45  O    0.172117   0.000000   0.000002  -0.000017   0.000022  -0.000414
              13         14         15         16         17         18
     1  S   -0.238101  -0.012476  -0.308434  -0.002007  -1.467593   0.876535
     2  O    0.033293  -0.046785  -0.523622   0.021929   0.561107   0.222699
     3  O    0.039915  -0.002543   0.017170   0.000477   0.002752   0.000159
     4  O    0.001558   0.004934   0.040952  -0.000528   0.058567  -0.063623
     5  O    0.178849   0.007179   0.016548   0.000256   0.003876  -0.000362
     6  N    0.036850   0.002769   0.124746   0.007351   0.880992  -0.916879
     7  H   -0.168535  -0.040512  -0.319728   0.013430  -0.263525   0.297149
     8  N   -0.313551  -0.022212  -0.015495   0.001724   0.001409   0.005584
     9  C    0.022312  -0.115419   2.360602   0.076189   0.924928  -0.059026
    10  C  -28.282873  -2.005049  -6.321392   0.437115  -4.302579   1.377472
    11  H   -1.342004  -0.186393  -0.235683   0.026746  -0.110122   0.138564
    12  C    0.837043  -0.348907  -5.597047   0.157198  -7.778919   1.522910
    13  C   30.255243   1.850327   7.810124  -0.563527  -2.508695  -5.899431
    14  H    1.850327   0.741048   0.630190  -0.085005   0.471445  -0.742813
    15  C    7.810124   0.630190  20.338077   0.308591   5.923539  -8.605498
    16  H   -0.563527  -0.085005   0.308591   0.898549   0.139647   0.555799
    17  C   -2.508695   0.471445   5.923539   0.139647  33.982176   0.908269
    18  C   -5.899431  -0.742813  -8.605498   0.555799   0.908269  48.362744
    19  C   -0.405930  -0.235477  -2.713179   0.119282  -9.717150   1.351861
    20  C    0.353987   0.027111   0.666680  -0.163515  -1.513854  -8.462087
    21  H   -0.009474   0.001976  -0.051963  -0.006306  -0.127603  -0.233002
    22  C    0.091620   0.006061   0.527330   0.085477   2.209895   1.609009
    23  H   -0.003523   0.000266   0.003539  -0.001709   0.030554   0.259151
    24  C   -0.303819  -0.040276  -2.425612   0.075103  -4.406743 -12.742654
    25  H   -0.002570  -0.003339  -0.048601   0.021876  -0.080666  -0.141877
    26  C   -2.484931  -0.036561  -3.874149  -0.143765  -7.538264 -13.551327
    27  H    0.026032   0.025725   0.118829  -0.115994   0.178559   0.259721
    28  C    4.244183   0.636468  -2.022677  -0.542730  -1.511041  -1.700297
    29  H   -0.070366   0.001963  -0.234883  -0.055996  -0.208018  -0.148307
    30  C    3.652933   0.119862   1.622718  -0.059107   1.411710   0.128713
    31  H   -0.016095  -0.004998   0.087171   0.011244   0.036319   0.021364
    32  C   -0.918653   0.069100  -1.565004  -0.066802  -0.859396  -0.290111
    33  H   -0.029545   0.003996  -0.063511  -0.003061  -0.018013  -0.004458
    34  C    0.075801   0.032611   0.246477  -0.006396   0.653991  -1.479807
    35  C    0.004168   0.022563   0.225952  -0.021656   1.503055  -1.004895
    36  H   -0.000516  -0.000104  -0.002208   0.000231   0.005868   0.042176
    37  C   -0.024864  -0.047215  -0.380840   0.029066  -1.797897   1.978952
    38  H    0.006128   0.000639   0.013014   0.000746   0.048056  -0.032195
    39  C    0.014037   0.000130   0.039925  -0.000018   0.096943  -0.218676
    40  H    0.000147  -0.000016   0.000462   0.000012  -0.000134  -0.005724
    41  C   -0.011053  -0.006483  -0.036336  -0.000060  -0.189068   0.122554
    42  H   -0.000206  -0.000089  -0.000570  -0.000038  -0.001090  -0.001348
    43  C   -0.005389   0.000114  -0.010958  -0.000065   0.004594   0.099151
    44  H   -0.000051   0.000031   0.000102  -0.000011   0.001534   0.002260
    45  O   -0.010539  -0.001611  -0.039326   0.000068  -0.226866   0.264935
              19         20         21         22         23         24
     1  S   -0.262535  -0.810822   0.273285  -2.029701  -0.025310  -0.006673
     2  O    0.047703  -0.029071   0.003578  -0.010035  -0.000460   0.007117
     3  O   -0.000004  -0.000000   0.000000   0.000000   0.000000   0.000002
     4  O   -0.424799   0.559812   0.009333   0.094768   0.000669  -0.002412
     5  O   -0.000015   0.000001  -0.000000   0.000001   0.000000   0.000006
     6  N   -1.647995   0.994989   0.068009   0.490977  -0.001388  -0.273018
     7  H    0.197686  -0.258215  -0.009402  -0.257129  -0.004932   0.140309
     8  N    0.000138  -0.000013   0.000000   0.000001   0.000000   0.000042
     9  C    0.016005   0.001273  -0.000153   0.004334   0.000051   0.012567
    10  C    0.720172   0.035901  -0.002273   0.027979   0.000094   0.148826
    11  H    0.032984  -0.000485  -0.000105  -0.000152  -0.000004   0.001451
    12  C    1.754708   0.047353  -0.005093  -0.035745  -0.000864   0.208306
    13  C   -0.405930   0.353987  -0.009474   0.091620  -0.003523  -0.303819
    14  H   -0.235477   0.027111   0.001976   0.006061   0.000266  -0.040276
    15  C   -2.713179   0.666680  -0.051963   0.527330   0.003539  -2.425612
    16  H    0.119282  -0.163515  -0.006306   0.085477  -0.001709   0.075103
    17  C   -9.717150  -1.513854  -0.127603   2.209895   0.030554  -4.406743
    18  C    1.351861  -8.462087  -0.233002   1.609009   0.259151 -12.742654
    19  C   24.046734  -3.884539   0.031679  -5.864865  -0.094602   2.525934
    20  C   -3.884539  21.471508   1.079362  -7.751437  -0.106931  -2.726658
    21  H    0.031679   1.079362   0.739089  -0.899624  -0.039795  -0.150448
    22  C   -5.864865  -7.751437  -0.899624  20.783733   0.589566   2.917436
    23  H   -0.094602  -0.106931  -0.039795   0.589566   0.482188  -0.240273
    24  C    2.525934  -2.726658  -0.150448   2.917436  -0.240273  19.609605
    25  H    0.161491  -0.225242  -0.001970  -0.001360  -0.033689   0.754854
    26  C    0.989346   6.953092   0.392092  -6.565642  -0.090173   4.588889
    27  H   -0.166585   0.330246   0.011749  -0.157592   0.012865  -0.649888
    28  C   -0.533420   0.005722   0.000456  -0.025543   0.000237  -0.273368
    29  H    0.015770   0.008747   0.000061  -0.007785  -0.000171   0.026318
    30  C   -0.128835  -0.005042   0.000125   0.000637   0.000184  -0.040983
    31  H    0.000292  -0.000278   0.000004   0.000290   0.000011  -0.000698
    32  C    0.006842   0.002985  -0.000056  -0.000304  -0.000035   0.002995
[...]
 0005135,0.00008138,-0.00018384,-0.00026520,0.00001092,-0.00000984,-0.0
 0003476,0.00002236,0.00014473,0.00012441,0.00014093,0.00000656,0.00001
 880,-0.00001486,-0.00007347,-0.00010419,-0.00020655,0.00005963,0.00003
 667,0.00004174,0.00012796,0.00003530,-0.00012031,-0.00004599,0.0000060
 8,0.00001594,0.00000934,0.00000521,0.00000331,0.00002522,-0.00000305,-
 0.00002591,-0.00000162,0.00000164,0.00000136,0.00002261,-0.00000739,0.
 00003158,0.00000203,0.00000250,0.00000135,-0.00004063,0.00000261,0.000
 01198,-0.00000782,0.00000198,0.00000439,-0.00005924,-0.00007395,0.0000
 4813,0.00000584,0.00002230,-0.00001835,0.00000085,-0.00008058,-0.00013
 987,-0.00001648,0.00000777,-0.00001183,0.00016954,0.00004019,-0.000002
 34,0.00001246,-0.00000311,0.00000031,0.00192974,-0.00161873,-0.0003430
 3,0.00044111,0.00066810,0.00040130,-0.00008441,0.00013146,-0.00015048,
 -0.00167287,-0.00078140,0.00112062,0.00026296,0.00064431,-0.00067375,-
 0.00109464,0.00050254,0.00424208,-0.00084042,-0.00041877,-0.00030614,-
 0.30029176,-0.08689637,-0.03728147,0.31638165,-0.00059474,0.00073708,0
 .00052889,0.00008827,0.00009018,0.00016772,-0.00010707,-0.00015322,-0.
 00000387,0.00021147,-0.00006069,-0.00011229,-0.00003175,-0.00024027,0.
 00032857,0.00004932,-0.00027170,-0.00001863,-0.00007642,0.00001851,-0.
 00004498,0.00032403,0.00029070,-0.00030293,0.00003771,0.00020822,0.000
 16673,-0.00038206,0.00009909,0.00039589,0.00054352,-0.00038571,0.00060
 371,0.00007721,0.00005263,-0.00045054,-0.00023531,0.00003627,-0.000007
 10,0.00004244,-0.00010471,-0.00005048,0.00017676,0.00009228,0.00005963
 ,0.00002322,-0.00001670,0.00001589,-0.00019968,-0.00013352,-0.00031581
 ,0.00002075,-0.00005772,0.00007709,0.00009418,0.00007169,-0.00009655,0
 .00000684,-0.00001798,0.00000946,0.00001694,0.00001223,0.00000026,0.00
 001715,0.00000376,0.00002204,-0.00000201,0.00000064,0.00000277,-0.0000
 3143,0.00000846,0.00001848,0.00000163,-0.00000389,0.00000042,0.0000362
 5,0.00002380,-0.00000223,-0.00001432,-0.00001008,0.00001703,-0.0001083
 6,0.00018971,0.00038437,0.00003006,0.00000068,-0.00001797,-0.00006950,
 -0.00032087,-0.00012742,-0.00001000,-0.00000615,-0.00001246,0.00024275
 ,-0.00008869,-0.00017557,0.00002511,0.00000649,-0.00004522,-0.00129607
 ,0.00355284,-0.00566550,0.00073066,-0.00099402,0.00002722,0.00009262,-
 0.00070556,0.00045867,-0.01625840,-0.00126709,-0.00130912,0.00100914,-
 0.00273689,0.00192381,0.00029825,0.00501384,-0.00388913,0.00040905,0.0
 0014291,-0.00000331,-0.08755142,-0.07323962,-0.02250007,0.09430015,0.0
 6710350,-0.00100280,0.00022359,0.00094088,0.00006595,-0.00004558,-0.00
 012755,0.00006399,0.00028247,0.00016416,0.00034007,-0.00002389,-0.0002
 2199,0.00036196,0.00016823,0.00059955,-0.00000093,-0.00043457,-0.00000
 770,-0.00005351,-0.00001377,0.00001707,-0.00009344,-0.00046060,-0.0006
 2349,0.00001069,-0.00026526,-0.00011355,-0.00020083,0.00048599,-0.0007
 6573,-0.00050101,0.00056760,-0.00050695,0.00020152,0.00002430,0.000299
 18,-0.00002541,0.00005476,0.00014922,-0.00002290,-0.00001145,0.0000300
 2,-0.00008669,-0.00016011,-0.00017063,0.00000419,-0.00000300,0.0000148
 0,0.00001229,0.00010919,0.00024255,0.00002128,0.00003633,-0.00001353,0
 .00019666,0.00004373,-0.00016516,-0.00009083,0.00001490,0.00000843,0.0
 0000639,0.00000463,0.00000157,0.00001113,0.00000876,-0.00004999,-0.000
 00346,-0.00000327,-0.00000157,0.00001887,-0.00000633,0.00003468,-0.000
 00207,-0.00000320,0.00000335,-0.00004870,-0.00000428,0.00003061,0.0000
 0817,-0.00000251,-0.00000260,-0.00001884,-0.00011689,-0.00018522,-0.00
 002552,-0.00000909,0.00002460,-0.00001893,0.00010663,0.00002147,-0.000
 00224,-0.00000710,0.00001784,0.00011199,-0.00004529,-0.00001049,-0.000
 02272,0.00000710,0.00000236,-0.00042252,-0.00573936,-0.00186132,0.0003
 5418,-0.00005656,-0.00143522,-0.00013669,0.00047664,-0.00020559,-0.024
 19668,-0.00805210,0.00030002,-0.00017562,0.00213121,-0.00049630,0.0039
 0537,-0.00389723,-0.00051338,0.00103074,0.00030009,0.00022481,-0.03704
 819,-0.02226023,-0.05843081,0.03952012,0.02752050,0.05681966,-0.003991
 12,0.00121117,0.00100010,0.00031628,0.00043410,-0.00036036,0.00004269,
 -0.00012213,-0.00010414,0.00029330,0.00043020,0.00029215,0.00010617,-0
 .00001144,-0.00024189,-0.00010675,-0.00033963,0.00114517,0.00003964,-0
 .00015542,-0.00004116,-0.00013619,0.00012332,0.00032839,-0.00020916,0.
 00067094,0.00024869,-0.00103951,0.00043379,-0.00136297,0.00003366,-0.0
 0015300,0.00011567,-0.00081048,0.00164138,-0.00139355,0.00003350,0.001
 28955,-0.00096971,-0.00013986,-0.00009169,0.00015361,-0.00095952,-0.00
 046937,-0.00096421,-0.00011686,0.00014497,0.00014622,-0.00025874,0.000
 62365,0.00057144,-0.00027246,-0.00003715,0.00001867,0.00038309,-0.0004
 6188,-0.00095662,0.00005384,0.00015818,0.00003519,0.00000963,0.0000098
 1,-0.00001149,-0.00009970,0.00003287,0.00001980,0.00000361,-0.00003536
 ,0.00000055,-0.00003336,0.00004809,-0.00006592,-0.00000699,-0.00000425
 ,0.00000800,0.00001197,-0.00023618,0.00006189,0.00000762,-0.00007655,0
 .00001066,0.00008594,0.00037621,0.00043446,-0.00001019,0.00003127,0.00
 000471,0.00016680,-0.00037090,0.00027376,-0.00000136,0.00002937,-0.000
 08218,-0.00014428,-0.00017161,0.00026826,-0.00002361,0.00000029,-0.000
 01923,-0.07332347,-0.00224810,0.01941020,0.01337350,-0.04775872,-0.080
 04312,0.00163710,-0.00092042,-0.00023771,0.06202108,0.04120401,0.04884
 561,0.00103877,-0.00246015,-0.00097219,-0.31474543,-0.05549995,0.01130
 327,-0.01466539,-0.00788267,-0.00495828,-0.23614072,0.00164794,0.07259
 484,-0.01555779,0.00799961,0.01923151,0.65437388,0.00013920,0.00000261
 ,0.00122419,0.00016967,-0.00021134,-0.00023893,0.00013409,-0.00002448,
 -0.00012511,-0.00015862,-0.00005021,-0.00002189,0.00019315,0.00004937,
 -0.00032499,-0.00029907,-0.00063743,0.00004486,-0.00004726,0.00004850,
 0.00010609,-0.00037342,-0.00011717,0.00046435,-0.00037084,0.00006405,-
 0.00040742,0.00028916,-0.00041522,0.00059582,0.00006315,-0.00009676,0.
 00000478,0.00132663,-0.00134584,0.00171241,0.00018914,-0.00184580,0.00
 119682,-0.00005972,0.00011210,-0.00012625,0.00025298,-0.00177651,-0.00
 011101,0.00013891,0.00025769,-0.00016531,0.00005044,0.00016061,0.00030
 900,0.00006341,0.00014301,0.00010760,0.00045709,0.00017196,-0.00038966
 ,-0.00027884,0.00003594,0.00006871,0.00001642,0.00000928,0.00000709,0.
 00005974,-0.00001343,-0.00017035,-0.00000463,-0.00001004,-0.00000338,0
 .00005297,0.00002055,0.00010342,-0.00000387,-0.00001494,0.00000800,-0.
 00015180,0.00000837,0.00006726,0.00000686,-0.00001251,0.00000376,0.000
 56042,-0.00021253,0.00093006,-0.00003551,-0.00001603,-0.00000466,0.000
 04335,-0.00061124,-0.00018696,-0.00000772,-0.00000015,-0.00002448,-0.0
 0022234,-0.00015881,-0.00018317,-0.00001369,0.00000482,-0.00001489,-0.
 00388427,-0.00827041,0.00029191,-0.01794367,-0.00554449,-0.01226337,-0
 .00102681,0.00374050,-0.00545029,0.01495218,0.00065534,-0.01534896,-0.
 00246048,0.00373637,-0.00525384,-0.09523183,-0.10485959,-0.03216757,0.
 00829089,0.00592366,0.00076716,0.04131469,-0.09398739,-0.06782732,-0.0
 0823593,0.00590319,0.00721314,0.09834238,0.32309842,0.00154730,0.00130
 356,0.00069221,-0.00010658,-0.00004783,0.00041959,0.00012242,-0.000125
 86,-0.00024086,-0.00030018,-0.00032776,-0.00038879,0.00029954,0.000013
 87,-0.00041457,-0.00024118,-0.00054738,-0.00035137,-0.00008869,0.00019
 024,-0.00003505,-0.00066066,0.00004287,0.00053552,-0.00001519,0.000222
 14,0.00043797,-0.00080089,0.00062637,-0.00079178,0.00023566,-0.0001382
 3,0.00021651,-0.00093538,0.00192516,-0.00207722,-0.00016143,0.00133109
 ,-0.00006401,0.00008049,-0.00023606,-0.00003514,-0.00019671,0.00063870
 ,-0.00029770,0.00004594,-0.00037320,0.00018841,-0.00010256,-0.00052458
 ,-0.00065595,0.00029239,0.00014502,0.00002434,0.00032849,0.00038981,-0
 .00009693,-0.00014856,-0.00009736,0.00007114,0.00002240,0.00001137,0.0
 0000947,0.00012735,0.00001046,-0.00015576,-0.00001046,0.00000161,0.000
 00590,0.00001808,0.00006481,0.00015027,-0.00000391,-0.00003077,0.00000
 568,-0.00012219,0.00014799,0.00008681,-0.00000976,-0.00004926,0.000033
 62,-0.00071331,0.00091672,-0.00074737,0.00005837,-0.00009565,0.0001671
 8,0.00008322,-0.00001987,0.00002607,0.00002141,0.00001197,-0.00001736,
 0.00028623,-0.00036259,-0.00007241,-0.00005955,-0.00000287,-0.00007518
 ,0.02091399,0.00024370,-0.01395070,-0.03369947,-0.00193110,0.01557680,
 -0.00003885,-0.00574640,-0.00206442,0.00119735,-0.02740451,-0.03942350
 ,-0.00132375,-0.00564269,-0.00098643,-0.05320323,-0.04742099,-0.118662
 64,0.02050752,0.00714411,0.00664709,0.13619077,-0.05216858,-0.20013829
 ,-0.00604444,0.00111797,0.00716882,-0.03557880,0.25431268,0.58449315,-
 0.00043444,0.00015724,0.00006437,0.00004918,-0.00001538,-0.00009049,0.
 00006330,0.00011678,0.00002737,0.00026680,0.00003367,-0.00006283,0.000
 10412,0.00000967,0.00002058,0.00005736,0.00012092,0.00000471,0.0000032
 3,-0.00001669,0.00001488,-0.00034509,-0.00017784,-0.00006102,-0.000307
 17,-0.00003524,0.00015331,-0.00039252,0.00046087,0.00006962,-0.0000089
 3,0.00000239,-0.00001217,-0.00003306,0.00022848,-0.00008454,0.00002955
 ,0.00001450,0.00010719,0.00000422,-0.00001746,0.00000390,-0.00003599,-
 0.00008978,-0.00011989,-0.00000205,-0.00000267,-0.00002337,-0.00004692
 ,0.00009866,0.00014444,-0.00002038,-0.00001007,-0.00002566,-0.00008132
 ,-0.00003255,0.00005629,0.00002478,-0.00001690,0.00000008,-0.00000170,
 0.00000336,0.00000210,0.00001068,-0.00000043,-0.00000256,-0.00000023,0
 .00000050,-0.00000129,0.00000401,0.00000501,-0.00001923,-0.00000356,-0
 .00000190,0.00000189,0.00000829,-0.00000550,-0.00001513,0.00000791,-0.
 00000256,-0.00000205,-0.00007209,-0.00001354,-0.00004284,-0.00002011,-
 0.00007724,0.00004433,-0.00008815,0.00009097,-0.00011605,0.00000079,-0
 .00004977,0.00011600,0.00025718,-0.00009480,-0.00037703,0.00001289,-0.
 00000374,0.00000349,-0.00145777,0.00021702,0.00047907,-0.00495640,-0.0
 0298546,0.00001289,-0.00009921,-0.00062232,-0.00115946,-0.00268195,0.0
 0016131,0.00409406,0.00035311,0.00059011,0.00082859,-0.00087518,-0.015
 80656,-0.02412873,0.00036125,0.00095541,-0.00014483,0.00948802,0.01257
 760,0.01850682,0.00021805,0.00053496,-0.00084439,-0.07108492,-0.036397
 09,-0.04759855,0.07157493,0.00006904,-0.00059783,0.00015365,0.00001697
 ,0.00008147,0.00017857,-0.00014771,-0.00025740,-0.00001014,-0.00008997
 ,0.00001313,0.00001369,-0.00022056,-0.00013068,0.00014768,-0.00008988,
 -0.00031653,0.00000855,-0.00002520,0.00002613,-0.00003348,0.00042096,0
 .00042891,-0.00013988,-0.00006550,0.00008745,0.00018666,0.00012280,-0.
 00014217,-0.00014043,-0.00003081,0.00000829,0.00001698,0.00020178,-0.0
 0047400,-0.00003127,-0.00015128,-0.00017624,-0.00025784,-0.00001389,0.
 00004125,0.00001001,0.00017476,0.00009837,0.00020062,-0.00004879,-0.00
 000066,-0.00006572,-0.00017411,-0.00017072,-0.00035148,0.00008467,0.00
 001379,0.00006630,0.00011907,0.00004401,-0.00008156,-0.00006738,-0.000
 02080,0.00004280,0.00000428,0.00000473,0.00000430,0.00003649,-0.000001
 09,-0.00005282,0.00000045,0.00000183,0.00000166,0.00002998,0.00000160,
 0.00004285,0.00000087,-0.00000066,-0.00000040,-0.00003953,0.00002629,0
 .00000300,-0.00001361,-0.00001317,0.00001061,-0.00017621,-0.00038792,0
 .00025151,0.00002472,-0.00003575,0.00001077,-0.00006393,0.00013119,0.0
 0017715,0.00001400,0.00000089,-0.00001055,0.00025723,0.00003711,0.0000
 6559,-0.00004079,0.00001938,-0.00007345,0.00020199,-0.00019905,0.00112
 111,-0.00312395,0.00517763,-0.00240647,0.00010971,-0.00028659,-0.00032
 522,0.00033062,0.00540048,-0.00330026,-0.00016893,-0.00022948,-0.00009
 843,-0.00010175,-0.00093376,-0.00813559,0.00060784,-0.00271409,0.00208
 049,-0.00294637,0.00028317,-0.00474446,0.00094596,-0.00258584,0.001835
 78,-0.03632616,-0.12383860,-0.12758284,0.04016354,0.12155675,0.0001600
 5,0.00050733,-0.00020742,-0.00005717,-0.00000772,0.00004274,0.00008849
 ,0.00015307,-0.00001139,-0.00010832,-0.00010875,-0.00010981,0.00011338
 ,0.00007860,-0.00018544,0.00003003,0.00009721,0.00007571,0.00000502,0.
 00000636,-0.00000260,-0.00017644,-0.00029349,0.00025790,-0.00005971,0.
 00016070,0.00015300,-0.00009673,0.00007690,-0.00004077,0.00000150,-0.0
 0003455,-0.00001368,-0.00018036,0.00032076,-0.00016191,0.00005101,-0.0
 0011842,0.00001980,-0.00000984,0.00000185,-0.00001259,0.00002391,-0.00
 002034,-0.00000268,0.00000129,-0.00001123,0.00000821,0.00005753,0.0000
 0561,-0.00000549,-0.00005099,-0.00002028,-0.00001993,-0.00003402,-0.00
 002571,0.00002320,0.00003426,-0.00000045,-0.00000711,0.00000421,0.0000
 0422,0.00000013,-0.00000311,0.00000224,0.00002696,-0.00000224,0.000000
 90,0.00000006,-0.00001347,-0.00000491,-0.00001555,-0.00000165,0.000000
 69,0.00000153,0.00002912,-0.00000912,-0.00002145,0.00000263,0.00000644
 ,0.00000147,-0.00014606,0.00064149,-0.00041097,0.00001241,-0.00002004,
 -0.00000782,0.00016712,0.00029177,-0.00042137,-0.00001056,-0.00000248,
 -0.00001344,-0.00007489,-0.00023975,-0.00013075,-0.00001323,-0.0000165
 5,0.00001209,0.00060483,0.00076892,0.00024748,0.00004521,-0.00253674,0
 .00299477,0.00011932,0.00004967,-0.00007481,0.00408404,-0.00315768,0.0
 0028512,-0.00044400,-0.00038935,-0.00054406,0.00134719,-0.00176320,0.0
 0071406,-0.00077282,0.00182136,-0.00065926,-0.00706474,-0.01064250,-0.
 01120908,-0.00025271,0.00182455,-0.00068281,-0.04746419,-0.12857102,-0
 .23508436,0.05026305,0.14120790,0.24527858,-0.49756211,0.12504697,-0.1
 1993583,0.00111627,0.00018779,-0.00165966,-0.00012236,-0.00027760,-0.0
 0016991,-0.01492240,0.01144617,-0.01482906,-0.00004271,-0.00010401,-0.
 00019164,-0.00569491,0.00499443,-0.00532502,0.00316122,0.00189370,0.00
 050545,0.00017985,0.00037969,0.00030650,0.00001062,0.00005406,0.000030
 56,-0.00005275,0.00003235,-0.00003998,0.00008377,-0.00003027,0.0000484
 2,0.00007868,-0.00000787,-0.00006199,0.00003116,0.00005379,0.00001265,
 0.00008103,-0.00007769,0.00008487,0.00017955,0.00006711,-0.00006296,-0
 .00005821,-0.00020229,0.00000328,-0.00216582,-0.00012978,0.00082092,0.
 00199127,0.00098288,-0.00176757,-0.00547887,-0.00081167,0.00305047,-0.
 00161998,-0.00298873,-0.00164836,0.00053761,0.00102627,0.00124062,0.00
 119320,-0.00066813,-0.00019304,0.00023680,0.00005570,-0.00017849,0.000
 98342,0.00039692,0.00029111,0.00004443,0.00002774,0.00018844,-0.001051
 88,-0.00008147,0.00110263,0.00008299,-0.00012336,-0.00008705,-0.000154
 77,-0.00000336,-0.00002966,0.00000839,-0.00001254,0.00003645,-0.000063
 63,0.00001781,0.00001356,0.00000785,-0.00001629,-0.00000393,0.00003649
 ,-0.00000665,-0.00003070,0.00000947,0.00000742,0.00001754,-0.01389885,
 0.01064879,-0.00294265,-0.00378910,-0.00133171,0.00050445,0.00087131,0
 .00043101,-0.00222654,0.00122415,-0.00169091,-0.00535245,0.00068869,0.
 00095219,0.00021251,0.00183335,-0.00123735,-0.00046012,-0.00005272,-0.
 00028173,-0.00045985,-0.00061278,-0.00123836,0.00022784,-0.00011923,-0
 .00047152,-0.00043219,-0.00015421,0.00010049,-0.00021463,0.00014951,0.
 00018856,-0.00020835,0.53279623,0.12268214,-0.11497202,0.03286468,0.00
 069756,0.00060561,0.00310361,0.00004709,0.00002649,-0.00003446,-0.0019
 4326,0.01421966,0.00441544,0.00004813,0.00004403,-0.00011089,0.0380180
 7,-0.01307828,0.01520238,-0.00533816,-0.00521525,0.00350429,-0.0001121
 6,-0.00001514,0.00013567,0.00002234,0.00003431,0.00007054,-0.00006370,
 0.00009279,0.00000964,0.00002298,-0.00006362,0.00002676,-0.00003551,-0
 .00002681,-0.00017822,-0.00036464,-0.00032125,0.00017313,-0.00002572,-
 0.00009584,-0.00002864,0.00091910,0.00095793,0.00050437,-0.00008803,-0
 .00009772,0.00017846,-0.00064548,-0.00194043,-0.00244916,-0.00029250,-
 0.00052763,0.00035228,0.00555113,0.00019539,-0.00303601,-0.00339822,-0
 .00267632,0.00088437,0.00021644,-0.00130215,0.00124216,0.00075635,-0.0
 0009636,-0.00068206,-0.00015489,-0.00015949,0.00003199,0.00029684,0.00
 021863,0.00115769,-0.00000297,-0.00006016,0.00012423,-0.00067739,0.000
 13011,0.00083941,-0.00013532,-0.00011198,0.00019412,-0.00002008,0.0000
 6754,0.00007720,0.00002874,-0.00004221,-0.00001231,-0.00000437,0.00003
 259,-0.00003014,0.00000192,-0.00000112,0.00002380,0.00004464,0.0001328
 8,0.00003368,0.00000999,-0.00001611,0.00001450,-0.00877774,0.00842714,
 -0.00847446,-0.00047350,-0.00020931,-0.00154725,-0.00057283,-0.0005772
 6,0.00011374,0.00206500,0.00194729,-0.00027962,-0.00026521,0.00030335,
 -0.00003708,0.00000167,0.00007490,0.00104418,0.00007456,-0.00008475,-0
 .00002013,0.00023855,-0.00157978,-0.00072374,-0.00003518,-0.00025779,0
 .00000610,-0.00105035,-0.00007544,0.00006414,-0.00006748,0.00002917,-0
 .00003429,-0.14719856,0.11606442,-0.13395759,0.03916524,-0.12567341,-0
 .00018606,0.00023943,-0.00022265,-0.00019052,-0.00026743,-0.00009654,0
 .02708222,-0.00316407,0.01572777,-0.00018908,-0.00011491,-0.00004900,-
 0.01358946,0.00579068,0.00412116,0.00231527,0.00313755,0.00074903,0.00
 041057,0.00040363,0.00011400,-0.00004524,0.00006686,0.00002518,-0.0000
 2892,-0.00000909,-0.00006965,0.00011527,-0.00003651,0.00003234,-0.0000
 0550,0.00002738,-0.00005526,0.00011710,0.00003872,0.00014806,0.0000474
 6,-0.00007795,0.00000101,-0.00000757,0.00003141,-0.00011126,-0.0000208
 8,-0.00008039,0.00009734,-0.00005778,-0.00047997,0.00029694,0.00009261
 ,0.00012682,0.00041760,-0.00211284,-0.00066860,0.00157504,0.00049107,0
 .00144209,-0.00143778,0.00049469,0.00085696,-0.00076566,-0.00011546,-0
 .00004136,0.00072010,0.00006421,-0.00001209,-0.00005920,-0.00028184,-0
 .00002707,-0.00019208,0.00002058,-0.00000434,0.00000909,0.00021015,0.0
 0013431,0.00014104,-0.00000983,-0.00006041,0.00001463,-0.00012035,0.00
 000056,0.00000899,0.00001096,-0.00002226,0.00005811,-0.00011330,-0.000
 00477,-0.00000045,0.00001441,-0.00001595,0.00000924,0.00006485,-0.0000
 1469,-0.00005910,0.00002165,0.00000985,0.00002012,-0.02847808,0.005329
 25,0.00015182,-0.00001139,0.00023456,-0.00074245,-0.00100810,-0.000049
 04,-0.00037524,0.00304618,-0.00133924,-0.00639524,-0.00040895,0.000173
 76,-0.00038241,-0.00054894,0.00013847,0.00074831,0.00006603,-0.0000193
 2,-0.00016683,-0.00212026,-0.00144925,-0.00003660,-0.00010872,-0.00052
 048,-0.00052406,-0.00069508,-0.00015831,-0.00012877,-0.00008691,0.0000
 0405,-0.00008627,0.14981336,-0.04871409,0.11244300\\-0.00000912,-0.000
 01471,0.00000830,-0.00000555,0.00000602,-0.00000654,0.00000157,-0.0000
 0267,0.00000571,0.00000665,0.00000734,-0.00000588,-0.00000673,-0.00000
 543,-0.00000584,0.00003552,0.00001801,-0.00002077,-0.00001466,0.000006
 15,-0.00000240,-0.00000757,0.00000221,0.00000645,0.00000756,-0.0000128
 4,-0.00001185,0.00001253,0.00001262,0.00000864,0.00000004,-0.00000265,
 -0.00000271,-0.00000343,-0.00000196,0.00000606,0.00000319,0.00000425,0
 .00000132,0.00000169,-0.00000348,-0.00000825,0.00000271,-0.00000093,-0
 .00000335,0.00000316,0.00000239,0.00000975,0.00000900,0.00001561,0.000
 00110,-0.00001314,-0.00001411,0.00000250,-0.00001675,0.00000491,0.0000
 0860,0.00001385,0.00000347,-0.00000580,-0.00000334,0.00000289,-0.00000
 087,-0.00000093,-0.00000172,0.00001360,-0.00000172,-0.00000066,-0.0000
 0013,-0.00000342,0.00000280,-0.00001379,-0.00000339,-0.00000493,0.0000
 0097,0.00001210,-0.00000555,-0.00000632,-0.00000058,0.00000052,0.00000
 042,0.00000534,-0.00000811,-0.00000249,-0.00000384,-0.00000935,-0.0000
 1253,0.00000896,0.00000693,-0.00000006,-0.00000140,-0.00000422,0.00000
 428,-0.00001164,-0.00000546,0.00000398,0.00000267,-0.00000327,0.000004
 42,-0.00002541,0.00000115,0.00001467,0.00000439,0.00000217,-0.00000436
 ,-0.00000052,-0.00000230,0.00000088,0.00000530,-0.00000302,-0.00000275
 ,0.00000304,-0.00000073,-0.00000094,0.00000264,-0.00000391,0.00000171,
 -0.00000258,0.00000166,0.00000564,-0.00000158,-0.00000194,-0.00000046,
 0.00000324,0.00000495,0.00000256,-0.00000338,0.00000245,-0.00000135,-0
 .00000145,-0.00000022,0.00000602,-0.00000301,0.00000567,0.00000188\\\@


 SI MONUMENTUM REQUIRIS, CIRCUMSPICE
     -- FROM SIR CHRISTOPHER WREN'S TOMBSTONE
 Job cpu time:       1 days 12 hours 56 minutes 34.3 seconds.
 Elapsed time:       0 days  2 hours 19 minutes  2.1 seconds.
 File lengths (MBytes):  RWF=   2279 Int=      0 D2E=      0 Chk=     53 Scr=      1
 Normal termination of Gaussian 16 at Thu Oct  9 11:17:12 2025.
