 Entering Gaussian System, Link 0=g16
 Input=NMPP0048.gjf
 Output=NMPP0048.log
 Initial command:
 /usr/local/g16/l1.exe "/dados_01/scratch/Gau-2574381.inp" -scrdir="/dados_01/scratch/"
 Entering Link 1 = /usr/local/g16/l1.exe PID=   2574382.
  
 Copyright (c) 1988-2017, Gaussian, Inc.  All Rights Reserved.
  
 This is part of the Gaussian(R) 16 program.  It is based on
 the Gaussian(R) 09 system (copyright 2009, Gaussian, Inc.),
 the Gaussian(R) 03 system (copyright 2003, Gaussian, Inc.),
 the Gaussian(R) 98 system (copyright 1998, Gaussian, Inc.),
 the Gaussian(R) 94 system (copyright 1995, Gaussian, Inc.),
 the Gaussian 92(TM) system (copyright 1992, Gaussian, Inc.),
 the Gaussian 90(TM) system (copyright 1990, Gaussian, Inc.),
 the Gaussian 88(TM) system (copyright 1988, Gaussian, Inc.),
 the Gaussian 86(TM) system (copyright 1986, Carnegie Mellon
 University), and the Gaussian 82(TM) system (copyright 1983,
 Carnegie Mellon University). Gaussian is a federally registered
 trademark of Gaussian, Inc.
  
 This software contains proprietary and confidential information,
 including trade secrets, belonging to Gaussian, Inc.
  
 This software is provided under written license and may be
 used, copied, transmitted, or stored only in accord with that
 written license.
  
 The following legend is applicable only to US Government
 contracts under FAR:
  
                    RESTRICTED RIGHTS LEGEND
  
 Use, reproduction and disclosure by the US Government is
 subject to restrictions as set forth in subparagraphs (a)
 and (c) of the Commercial Computer Software - Restricted
 Rights clause in FAR 52.227-19.
  
 Gaussian, Inc.
 340 Quinnipiac St., Bldg. 40, Wallingford CT 06492
  
  
 ---------------------------------------------------------------
 Warning -- This program may not be used in any manner that
 competes with the business of Gaussian, Inc. or will provide
 assistance to any competitor of Gaussian, Inc.  The licensee
 of this program is prohibited from giving any competitor of
 Gaussian, Inc. access to this program.  By using this program,
 the user acknowledges that Gaussian, Inc. is engaged in the
 business of creating and licensing software in the field of
 computational chemistry and represents and warrants to the
 licensee that it is not a competitor of Gaussian, Inc. and that
 it will not use this program in any manner prohibited above.
 ---------------------------------------------------------------
  

 Cite this work as:
 Gaussian 16, Revision B.01,
 M. J. Frisch, G. W. Trucks, H. B. Schlegel, G. E. Scuseria, 
 M. A. Robb, J. R. Cheeseman, G. Scalmani, V. Barone, 
 G. A. Petersson, H. Nakatsuji, X. Li, M. Caricato, A. V. Marenich, 
 J. Bloino, B. G. Janesko, R. Gomperts, B. Mennucci, H. P. Hratchian, 
 J. V. Ortiz, A. F. Izmaylov, J. L. Sonnenberg, D. Williams-Young, 
 F. Ding, F. Lipparini, F. Egidi, J. Goings, B. Peng, A. Petrone, 
 T. Henderson, D. Ranasinghe, V. G. Zakrzewski, J. Gao, N. Rega, 
 G. Zheng, W. Liang, M. Hada, M. Ehara, K. Toyota, R. Fukuda, 
 J. Hasegawa, M. Ishida, T. Nakajima, Y. Honda, O. Kitao, H. Nakai, 
 T. Vreven, K. Throssell, J. A. Montgomery, Jr., J. E. Peralta, 
 F. Ogliaro, M. J. Bearpark, J. J. Heyd, E. N. Brothers, K. N. Kudin, 
 V. N. Staroverov, T. A. Keith, R. Kobayashi, J. Normand, 
 K. Raghavachari, A. P. Rendell, J. C. Burant, S. S. Iyengar, 
 J. Tomasi, M. Cossi, J. M. Millam, M. Klene, C. Adamo, R. Cammi, 
 J. W. Ochterski, R. L. Martin, K. Morokuma, O. Farkas, 
 J. B. Foresman, and D. J. Fox, Gaussian, Inc., Wallingford CT, 2016.
 
 ******************************************
 Gaussian 16:  ES64L-G16RevB.01 20-Dec-2017
                 9-Oct-2025 
 ******************************************
 %nprocs=16
 Will use up to   16 processors via shared memory.
 %mem=40GB
 %chk=NMPP0048.chk
 ----------------------------------------------------------------------
 # opt freq=noraman M08HX/6-311++G** scf=xqc Empiricaldispersion=pfd In
 t(Grid=ultraFine)
 ----------------------------------------------------------------------
 1/18=20,19=15,26=4,38=1/1,3;
 2/9=110,12=2,17=6,18=5,40=1/2;
 3/5=4,6=6,7=1111,11=2,25=1,30=1,71=1,74=-74,75=-5,124=11/1,2,3;
 4//1;
 5/5=2,8=3,13=1,38=5/2,8;
 6/7=2,8=2,9=2,10=2,28=1/1;
 7//1,2,3,16;
 1/18=20,19=15,26=4/3(2);
 2/9=110/2;
 99//99;
 2/9=110/2;
 3/5=4,6=6,7=1111,11=2,25=1,30=1,71=1,74=-74,75=-5,124=11/1,2,3;
 4/5=5,16=3,69=1/1;
 5/5=2,8=3,13=1,38=5/2,8;
 7//1,2,3,16;
 1/18=20,19=15,26=4/3(-5);
 2/9=110/2;
 6/7=2,8=2,9=2,10=2,19=2,28=1/1;
 99/9=1/99;
 --------
 NMPP0048
 --------
 Symbolic Z-matrix:
 Charge =  0 Multiplicity = 1
 S                     3.9805   -1.0938   -1.0306 
 O                     3.957    -1.9412   -2.2082 
 O                     5.2135   -0.931    -0.2846 
 O                     0.7798    0.8859   -2.1691 
 O                    -7.0247   -0.2725    0.827 
 N                     3.3288    0.4465   -1.4382 
 C                     2.9647    1.3402   -0.3822 
 C                     1.6499    1.6939   -0.1457 
 C                     2.7563   -1.726     0.0805 
 C                     3.9665    1.8707    0.4308 
 C                     1.2997    2.5589    0.8749 
 C                     0.5617    1.1465   -0.9911 
 C                     1.7014   -2.4622   -0.4277 
 C                     2.8793   -1.4707    1.4343 
 C                     3.6348    2.745     1.4659 
 C                     2.3015    3.0892    1.6878 
 C                    -0.7769    0.9655   -0.3634 
 C                     0.7364   -2.9599    0.4478 
 C                     1.9142   -1.9686    2.3097 
 C                    -3.167     0.2987   -0.594 
 C                    -1.8156    0.4992   -1.0928 
 C                     0.8428   -2.7132    1.8164 
 C                    -3.3955    0.1845    0.7771 
 C                    -4.2351    0.221    -1.488 
 C                    -5.7601   -0.0854    0.3607 
 C                    -4.692    -0.0077    1.2545 
 C                    -5.5316    0.029    -1.0106 
 C                    -8.0704   -0.3426   -0.1413 
 H                     2.7295    0.478    -2.2723 
 H                     5.0129    1.6321    0.2632 
 H                     0.2837    2.8927    1.0567 
 H                     1.5953   -2.6565   -1.4903 
 H                     3.706    -0.8959    1.8394 
 H                     4.4153    3.1633    2.0947 
 H                     2.0453    3.7793    2.4865 
 H                    -0.8882    1.1838    0.6898 
 H                    -0.1      -3.5364    0.0636 
 H                     1.9966   -1.7761    3.3754 
 H                    -1.6709    0.2815   -2.1488 
 H                     0.0906   -3.0995    2.4979 
 H                    -2.5955    0.2156    1.5107 
 H                    -4.0757    0.3094   -2.5601 
 H                    -4.8638   -0.1011    2.3234 
 H                    -6.3146   -0.0218   -1.7595 
 H                    -7.9456   -1.2038   -0.8065 
 H                    -8.1708    0.5977   -0.6939 
 H                    -9.0072   -0.4939    0.405 
 

 GradGradGradGradGradGradGradGradGradGradGradGradGradGradGradGradGradGrad
 Berny optimization.
 Initialization pass.
                           ----------------------------
                           !    Initial Parameters    !
                           ! (Angstroms and Degrees)  !
 --------------------------                            --------------------------
 ! Name  Definition              Value          Derivative Info.                !
 --------------------------------------------------------------------------------
 ! R1    R(1,2)                  1.451          estimate D2E/DX2                !
 ! R2    R(1,3)                  1.4503         estimate D2E/DX2                !
 ! R3    R(1,6)                  1.7214         estimate D2E/DX2                !
 ! R4    R(1,9)                  1.77           estimate D2E/DX2                !
 ! R5    R(4,12)                 1.226          estimate D2E/DX2                !
 ! R6    R(5,25)                 1.3608         estimate D2E/DX2                !
 ! R7    R(5,28)                 1.4269         estimate D2E/DX2                !
 ! R8    R(6,7)                  1.4305         estimate D2E/DX2                !
 ! R9    R(6,29)                 1.0276         estimate D2E/DX2                !
 ! R10   R(7,8)                  1.3819         estimate D2E/DX2                !
 ! R11   R(7,10)                 1.395          estimate D2E/DX2                !
 ! R12   R(8,11)                 1.3829         estimate D2E/DX2                !
 ! R13   R(8,12)                 1.4827         estimate D2E/DX2                !
 ! R14   R(9,13)                 1.3831         estimate D2E/DX2                !
 ! R15   R(9,14)                 1.3831         estimate D2E/DX2                !
 ! R16   R(10,15)                1.3949         estimate D2E/DX2                !
 ! R17   R(10,30)                1.0863         estimate D2E/DX2                !
 ! R18   R(11,16)                1.3949         estimate D2E/DX2                !
 ! R19   R(11,31)                1.0848         estimate D2E/DX2                !
 ! R20   R(12,17)                1.4895         estimate D2E/DX2                !
 ! R21   R(13,18)                1.3948         estimate D2E/DX2                !
 ! R22   R(13,32)                1.0854         estimate D2E/DX2                !
 ! R23   R(14,19)                1.3949         estimate D2E/DX2                !
 ! R24   R(14,33)                1.0853         estimate D2E/DX2                !
 ! R25   R(15,16)                1.3948         estimate D2E/DX2                !
 ! R26   R(15,34)                1.0861         estimate D2E/DX2                !
 ! R27   R(16,35)                1.0862         estimate D2E/DX2                !
 ! R28   R(17,21)                1.3522         estimate D2E/DX2                !
 ! R29   R(17,36)                1.0813         estimate D2E/DX2                !
 ! R30   R(18,22)                1.3947         estimate D2E/DX2                !
 ! R31   R(18,37)                1.0861         estimate D2E/DX2                !
 ! R32   R(19,22)                1.3949         estimate D2E/DX2                !
 ! R33   R(19,38)                1.0861         estimate D2E/DX2                !
 ! R34   R(20,21)                1.4544         estimate D2E/DX2                !
 ! R35   R(20,23)                1.3947         estimate D2E/DX2                !
 ! R36   R(20,24)                1.395          estimate D2E/DX2                !
 ! R37   R(21,39)                1.0879         estimate D2E/DX2                !
 ! R38   R(22,40)                1.086          estimate D2E/DX2                !
 ! R39   R(23,26)                1.3949         estimate D2E/DX2                !
 ! R40   R(23,41)                1.0859         estimate D2E/DX2                !
 ! R41   R(24,27)                1.3949         estimate D2E/DX2                !
 ! R42   R(24,42)                1.0875         estimate D2E/DX2                !
 ! R43   R(25,26)                1.3949         estimate D2E/DX2                !
 ! R44   R(25,27)                1.3949         estimate D2E/DX2                !
 ! R45   R(26,43)                1.0866         estimate D2E/DX2                !
 ! R46   R(27,44)                1.0847         estimate D2E/DX2                !
 ! R47   R(28,45)                1.0953         estimate D2E/DX2                !
 ! R48   R(28,46)                1.0953         estimate D2E/DX2                !
 ! R49   R(28,47)                1.095          estimate D2E/DX2                !
 ! A1    A(2,1,3)              119.788          estimate D2E/DX2                !
 ! A2    A(2,1,6)              108.9209         estimate D2E/DX2                !
 ! A3    A(2,1,9)              106.838          estimate D2E/DX2                !
 ! A4    A(3,1,6)              110.0727         estimate D2E/DX2                !
 ! A5    A(3,1,9)              107.771          estimate D2E/DX2                !
 ! A6    A(6,1,9)              101.9107         estimate D2E/DX2                !
 ! A7    A(25,5,28)            117.0829         estimate D2E/DX2                !
 ! A8    A(1,6,7)              118.7223         estimate D2E/DX2                !
 ! A9    A(1,6,29)             116.131          estimate D2E/DX2                !
 ! A10   A(7,6,29)             115.5701         estimate D2E/DX2                !
 ! A11   A(6,7,8)              121.8966         estimate D2E/DX2                !
 ! A12   A(6,7,10)             119.0134         estimate D2E/DX2                !
 ! A13   A(8,7,10)             119.09           estimate D2E/DX2                !
 ! A14   A(7,8,11)             121.8245         estimate D2E/DX2                !
 ! A15   A(7,8,12)             120.4105         estimate D2E/DX2                !
 ! A16   A(11,8,12)            117.765          estimate D2E/DX2                !
 ! A17   A(1,9,13)             119.1416         estimate D2E/DX2                !
 ! A18   A(1,9,14)             119.143          estimate D2E/DX2                !
 ! A19   A(13,9,14)            121.7154         estimate D2E/DX2                !
 ! A20   A(7,10,15)            120.0031         estimate D2E/DX2                !
 ! A21   A(7,10,30)            121.2205         estimate D2E/DX2                !
 ! A22   A(15,10,30)           118.7652         estimate D2E/DX2                !
 ! A23   A(8,11,16)            119.0793         estimate D2E/DX2                !
 ! A24   A(8,11,31)            123.5958         estimate D2E/DX2                !
 ! A25   A(16,11,31)           117.2593         estimate D2E/DX2                !
 ! A26   A(4,12,8)             119.7183         estimate D2E/DX2                !
 ! A27   A(4,12,17)            122.6118         estimate D2E/DX2                !
 ! A28   A(8,12,17)            117.6549         estimate D2E/DX2                !
 ! A29   A(9,13,18)            119.1417         estimate D2E/DX2                !
 ! A30   A(9,13,32)            121.9741         estimate D2E/DX2                !
 ! A31   A(18,13,32)           118.8811         estimate D2E/DX2                !
 ! A32   A(9,14,19)            119.1344         estimate D2E/DX2                !
 ! A33   A(9,14,33)            122.0613         estimate D2E/DX2                !
 ! A34   A(19,14,33)           118.8042         estimate D2E/DX2                !
 ! A35   A(10,15,16)           120.0022         estimate D2E/DX2                !
 ! A36   A(10,15,34)           120.0087         estimate D2E/DX2                !
 ! A37   A(16,15,34)           119.9878         estimate D2E/DX2                !
 ! A38   A(11,16,15)           120.001          estimate D2E/DX2                !
 ! A39   A(11,16,35)           120.0448         estimate D2E/DX2                !
 ! A40   A(15,16,35)           119.9503         estimate D2E/DX2                !
 ! A41   A(12,17,21)           120.3268         estimate D2E/DX2                !
 ! A42   A(12,17,36)           118.5824         estimate D2E/DX2                !
 ! A43   A(21,17,36)           121.061          estimate D2E/DX2                !
 ! A44   A(13,18,22)           120.0028         estimate D2E/DX2                !
 ! A45   A(13,18,37)           120.0119         estimate D2E/DX2                !
 ! A46   A(22,18,37)           119.985          estimate D2E/DX2                !
 ! A47   A(14,19,22)           120.0027         estimate D2E/DX2                !
 ! A48   A(14,19,38)           120.0034         estimate D2E/DX2                !
 ! A49   A(22,19,38)           119.9938         estimate D2E/DX2                !
 ! A50   A(21,20,23)           120.0448         estimate D2E/DX2                !
 ! A51   A(21,20,24)           119.9548         estimate D2E/DX2                !
 ! A52   A(23,20,24)           120.0003         estimate D2E/DX2                !
 ! A53   A(17,21,20)           125.1914         estimate D2E/DX2                !
 ! A54   A(17,21,39)           119.3708         estimate D2E/DX2                !
 ! A55   A(20,21,39)           115.3987         estimate D2E/DX2                !
 ! A56   A(18,22,19)           120.0031         estimate D2E/DX2                !
 ! A57   A(18,22,40)           120.0003         estimate D2E/DX2                !
 ! A58   A(19,22,40)           119.9965         estimate D2E/DX2                !
 ! A59   A(20,23,26)           120.001          estimate D2E/DX2                !
 ! A60   A(20,23,41)           122.7589         estimate D2E/DX2                !
 ! A61   A(26,23,41)           117.2251         estimate D2E/DX2                !
 ! A62   A(20,24,27)           119.9988         estimate D2E/DX2                !
 ! A63   A(20,24,42)           120.9992         estimate D2E/DX2                !
 ! A64   A(27,24,42)           119.0019         estimate D2E/DX2                !
 ! A65   A(5,25,26)            119.9797         estimate D2E/DX2                !
 ! A66   A(5,25,27)            120.0258         estimate D2E/DX2                !
 ! A67   A(26,25,27)           119.9945         estimate D2E/DX2                !
 ! A68   A(23,26,25)           120.005          estimate D2E/DX2                !
 ! A69   A(23,26,43)           119.6994         estimate D2E/DX2                !
 ! A70   A(25,26,43)           120.295          estimate D2E/DX2                !
 ! A71   A(24,27,25)           120.0004         estimate D2E/DX2                !
 ! A72   A(24,27,44)           116.1744         estimate D2E/DX2                !
 ! A73   A(25,27,44)           123.8252         estimate D2E/DX2                !
 ! A74   A(5,28,45)            111.5463         estimate D2E/DX2                !
 ! A75   A(5,28,46)            111.5544         estimate D2E/DX2                !
 ! A76   A(5,28,47)            107.1703         estimate D2E/DX2                !
 ! A77   A(45,28,46)           112.2744         estimate D2E/DX2                !
 ! A78   A(45,28,47)           106.9681         estimate D2E/DX2                !
 ! A79   A(46,28,47)           106.9733         estimate D2E/DX2                !
 ! D1    D(2,1,6,7)            165.7374         estimate D2E/DX2                !
 ! D2    D(2,1,6,29)            20.9487         estimate D2E/DX2                !
 ! D3    D(3,1,6,7)            -61.0752         estimate D2E/DX2                !
 ! D4    D(3,1,6,29)           154.1362         estimate D2E/DX2                !
 ! D5    D(9,1,6,7)             53.078          estimate D2E/DX2                !
 ! D6    D(9,1,6,29)           -91.7107         estimate D2E/DX2                !
 ! D7    D(2,1,9,13)           -24.2083         estimate D2E/DX2                !
 ! D8    D(2,1,9,14)           155.8067         estimate D2E/DX2                !
 ! D9    D(3,1,9,13)          -154.1533         estimate D2E/DX2                !
 ! D10   D(3,1,9,14)            25.8617         estimate D2E/DX2                !
 ! D11   D(6,1,9,13)            90.0014         estimate D2E/DX2                !
 ! D12   D(6,1,9,14)           -89.9836         estimate D2E/DX2                !
 ! D13   D(28,5,25,26)         179.9931         estimate D2E/DX2                !
 ! D14   D(28,5,25,27)           0.0074         estimate D2E/DX2                !
 ! D15   D(25,5,28,45)          63.2227         estimate D2E/DX2                !
 ! D16   D(25,5,28,46)         -63.2277         estimate D2E/DX2                !
 ! D17   D(25,5,28,47)         179.9921         estimate D2E/DX2                !
 ! D18   D(1,6,7,8)           -113.3213         estimate D2E/DX2                !
 ! D19   D(1,6,7,10)            66.7547         estimate D2E/DX2                !
 ! D20   D(29,6,7,8)            31.6585         estimate D2E/DX2                !
 ! D21   D(29,6,7,10)         -148.2655         estimate D2E/DX2                !
 ! D22   D(6,7,8,11)          -179.9444         estimate D2E/DX2                !
 ! D23   D(6,7,8,12)             0.1291         estimate D2E/DX2                !
 ! D24   D(10,7,8,11)           -0.0204         estimate D2E/DX2                !
 ! D25   D(10,7,8,12)         -179.947          estimate D2E/DX2                !
 ! D26   D(6,7,10,15)          179.9491         estimate D2E/DX2                !
 ! D27   D(6,7,10,30)            1.1831         estimate D2E/DX2                !
 ! D28   D(8,7,10,15)            0.0229         estimate D2E/DX2                !
 ! D29   D(8,7,10,30)         -178.7431         estimate D2E/DX2                !
 ! D30   D(7,8,11,16)            0.016          estimate D2E/DX2                !
 ! D31   D(7,8,11,31)          176.9872         estimate D2E/DX2                !
 ! D32   D(12,8,11,16)         179.9445         estimate D2E/DX2                !
 ! D33   D(12,8,11,31)          -3.0844         estimate D2E/DX2                !
 ! D34   D(7,8,12,4)           -31.4409         estimate D2E/DX2                !
 ! D35   D(7,8,12,17)          149.9326         estimate D2E/DX2                !
 ! D36   D(11,8,12,4)          148.6296         estimate D2E/DX2                !
 ! D37   D(11,8,12,17)         -29.9969         estimate D2E/DX2                !
 ! D38   D(1,9,13,18)         -179.9728         estimate D2E/DX2                !
 ! D39   D(1,9,13,32)           -0.6192         estimate D2E/DX2                !
 ! D40   D(14,9,13,18)           0.0118         estimate D2E/DX2                !
 ! D41   D(14,9,13,32)         179.3654         estimate D2E/DX2                !
 ! D42   D(1,9,14,19)          179.9777         estimate D2E/DX2                !
 ! D43   D(1,9,14,33)           -0.1742         estimate D2E/DX2                !
 ! D44   D(13,9,14,19)          -0.0069         estimate D2E/DX2                !
 ! D45   D(13,9,14,33)         179.8412         estimate D2E/DX2                !
 ! D46   D(7,10,15,16)          -0.0215         estimate D2E/DX2                !
 ! D47   D(7,10,15,34)        -179.5892         estimate D2E/DX2                !
 ! D48   D(30,10,15,16)        178.7746         estimate D2E/DX2                !
 ! D49   D(30,10,15,34)         -0.793          estimate D2E/DX2                !
 ! D50   D(8,11,16,15)          -0.0142         estimate D2E/DX2                !
 ! D51   D(8,11,16,35)         179.2732         estimate D2E/DX2                !
 ! D52   D(31,11,16,15)       -177.1762         estimate D2E/DX2                !
 ! D53   D(31,11,16,35)          2.1111         estimate D2E/DX2                !
 ! D54   D(4,12,17,21)          -0.1008         estimate D2E/DX2                !
 ! D55   D(4,12,17,36)         177.9327         estimate D2E/DX2                !
 ! D56   D(8,12,17,21)         178.4831         estimate D2E/DX2                !
 ! D57   D(8,12,17,36)          -3.4834         estimate D2E/DX2                !
 ! D58   D(9,13,18,22)          -0.0117         estimate D2E/DX2                !
 ! D59   D(9,13,18,37)         179.7569         estimate D2E/DX2                !
 ! D60   D(32,13,18,22)       -179.3855         estimate D2E/DX2                !
 ! D61   D(32,13,18,37)          0.3831         estimate D2E/DX2                !
 ! D62   D(9,14,19,22)           0.0019         estimate D2E/DX2                !
 ! D63   D(9,14,19,38)        -179.965          estimate D2E/DX2                !
 ! D64   D(33,14,19,22)       -179.8512         estimate D2E/DX2                !
 ! D65   D(33,14,19,38)          0.1819         estimate D2E/DX2                !
 ! D66   D(10,15,16,11)          0.0171         estimate D2E/DX2                !
 ! D67   D(10,15,16,35)       -179.2709         estimate D2E/DX2                !
 ! D68   D(34,15,16,11)        179.5849         estimate D2E/DX2                !
 ! D69   D(34,15,16,35)          0.2968         estimate D2E/DX2                !
 ! D70   D(12,17,21,20)       -179.1707         estimate D2E/DX2                !
 ! D71   D(12,17,21,39)         -1.5527         estimate D2E/DX2                !
 ! D72   D(36,17,21,20)          2.8452         estimate D2E/DX2                !
 ! D73   D(36,17,21,39)       -179.5368         estimate D2E/DX2                !
 ! D74   D(13,18,22,19)          0.0069         estimate D2E/DX2                !
 ! D75   D(13,18,22,40)        179.9095         estimate D2E/DX2                !
 ! D76   D(37,18,22,19)       -179.7617         estimate D2E/DX2                !
 ! D77   D(37,18,22,40)          0.1409         estimate D2E/DX2                !
 ! D78   D(14,19,22,18)         -0.002          estimate D2E/DX2                !
 ! D79   D(14,19,22,40)       -179.9046         estimate D2E/DX2                !
 ! D80   D(38,19,22,18)        179.9649         estimate D2E/DX2                !
 ! D81   D(38,19,22,40)          0.0624         estimate D2E/DX2                !
 ! D82   D(23,20,21,17)        -20.0003         estimate D2E/DX2                !
 ! D83   D(23,20,21,39)        162.2976         estimate D2E/DX2                !
 ! D84   D(24,20,21,17)        159.982          estimate D2E/DX2                !
 ! D85   D(24,20,21,39)        -17.7201         estimate D2E/DX2                !
 ! D86   D(21,20,23,26)        179.9961         estimate D2E/DX2                !
 ! D87   D(21,20,23,41)         -1.4533         estimate D2E/DX2                !
 ! D88   D(24,20,23,26)          0.0138         estimate D2E/DX2                !
 ! D89   D(24,20,23,41)        178.5644         estimate D2E/DX2                !
 ! D90   D(21,20,24,27)       -179.9867         estimate D2E/DX2                !
 ! D91   D(21,20,24,42)         -0.0744         estimate D2E/DX2                !
 ! D92   D(23,20,24,27)         -0.0044         estimate D2E/DX2                !
 ! D93   D(23,20,24,42)        179.9079         estimate D2E/DX2                !
 ! D94   D(20,23,26,25)         -0.0144         estimate D2E/DX2                !
 ! D95   D(20,23,26,43)        179.6895         estimate D2E/DX2                !
 ! D96   D(41,23,26,25)       -178.6437         estimate D2E/DX2                !
 ! D97   D(41,23,26,43)          1.0602         estimate D2E/DX2                !
 ! D98   D(20,24,27,25)         -0.0044         estimate D2E/DX2                !
 ! D99   D(20,24,27,44)        179.9817         estimate D2E/DX2                !
 ! D100  D(42,24,27,25)       -179.9184         estimate D2E/DX2                !
 ! D101  D(42,24,27,44)          0.0677         estimate D2E/DX2                !
 ! D102  D(5,25,26,23)        -179.9802         estimate D2E/DX2                !
 ! D103  D(5,25,26,43)           0.3177         estimate D2E/DX2                !
 ! D104  D(27,25,26,23)          0.0056         estimate D2E/DX2                !
 ! D105  D(27,25,26,43)       -179.6966         estimate D2E/DX2                !
 ! D106  D(5,25,27,24)         179.9896         estimate D2E/DX2                !
 ! D107  D(5,25,27,44)           0.0045         estimate D2E/DX2                !
 ! D108  D(26,25,27,24)          0.0038         estimate D2E/DX2                !
 ! D109  D(26,25,27,44)       -179.9812         estimate D2E/DX2                !
 --------------------------------------------------------------------------------
 Trust Radius=3.00D-01 FncErr=1.00D-07 GrdErr=1.00D-06 EigMax=2.50D+02 EigMin=1.00D-04
 Number of steps in this run=    247 maximum allowed number of steps=    282.
 GradGradGradGradGradGradGradGradGradGradGradGradGradGradGradGradGradGrad

                          Input orientation:                          
 ---------------------------------------------------------------------
 Center     Atomic      Atomic             Coordinates (Angstroms)
 Number     Number       Type             X           Y           Z
 ---------------------------------------------------------------------
      1         16           0        3.980500   -1.093800   -1.030600
      2          8           0        3.957000   -1.941200   -2.208200
      3          8           0        5.213500   -0.931000   -0.284600
      4          8           0        0.779800    0.885900   -2.169100
      5          8           0       -7.024700   -0.272500    0.827000
      6          7           0        3.328800    0.446500   -1.438200
      7          6           0        2.964700    1.340200   -0.382200
      8          6           0        1.649900    1.693900   -0.145700
      9          6           0        2.756300   -1.726000    0.080500
     10          6           0        3.966500    1.870700    0.430800
     11          6           0        1.299700    2.558900    0.874900
     12          6           0        0.561700    1.146500   -0.991100
     13          6           0        1.701400   -2.462200   -0.427700
     14          6           0        2.879300   -1.470700    1.434300
     15          6           0        3.634800    2.745000    1.465900
     16          6           0        2.301500    3.089200    1.687800
     17          6           0       -0.776900    0.965500   -0.363400
     18          6           0        0.736400   -2.959900    0.447800
     19          6           0        1.914200   -1.968600    2.309700
     20          6           0       -3.167000    0.298700   -0.594000
     21          6           0       -1.815600    0.499200   -1.092800
     22          6           0        0.842800   -2.713200    1.816400
     23          6           0       -3.395500    0.184500    0.777100
     24          6           0       -4.235100    0.221000   -1.488000
     25          6           0       -5.760100   -0.085400    0.360700
     26          6           0       -4.692000   -0.007700    1.254500
     27          6           0       -5.531600    0.029000   -1.010600
     28          6           0       -8.070400   -0.342600   -0.141300
     29          1           0        2.729500    0.478000   -2.272300
     30          1           0        5.012900    1.632100    0.263200
     31          1           0        0.283700    2.892700    1.056700
     32          1           0        1.595300   -2.656500   -1.490300
     33          1           0        3.706000   -0.895900    1.839400
     34          1           0        4.415300    3.163300    2.094700
     35          1           0        2.045300    3.779300    2.486500
     36          1           0       -0.888200    1.183800    0.689800
     37          1           0       -0.100000   -3.536400    0.063600
     38          1           0        1.996600   -1.776100    3.375400
     39          1           0       -1.670900    0.281500   -2.148800
     40          1           0        0.090600   -3.099500    2.497900
     41          1           0       -2.595500    0.215600    1.510700
     42          1           0       -4.075700    0.309400   -2.560100
     43          1           0       -4.863800   -0.101100    2.323400
     44          1           0       -6.314600   -0.021800   -1.759500
     45          1           0       -7.945600   -1.203800   -0.806500
     46          1           0       -8.170800    0.597700   -0.693900
     47          1           0       -9.007200   -0.493900    0.405000
 ---------------------------------------------------------------------
                    Distance matrix (angstroms):
                    1          2          3          4          5
     1  S    0.000000
     2  O    1.450993   0.000000
     3  O    1.450279   2.509887   0.000000
     4  O    3.931905   4.253072   5.148802   0.000000
     5  O   11.191052  11.514979  12.306210   8.439711   0.000000
     6  N    1.721446   2.586242   2.603919   2.687878  10.622761
     7  C    2.715995   3.884137   3.197652   2.858879  10.190735
     8  C    3.739788   4.773947   4.428164   2.346079   8.947713
     9  C    1.769996   2.593480   2.608286   3.973572   9.916546
    10  C    3.305170   4.636269   3.149020   4.228991  11.205211
    11  C    4.915266   6.067755   5.370444   3.512145   8.792881
    12  C    4.087627   4.747977   5.143383   1.226036   7.929219
    13  C    2.725858   2.920506   3.834045   3.884790   9.083715
    14  C    2.725881   3.827612   2.948624   4.790194   9.994684
    15  C    4.592211   5.963497   4.366866   4.982018  11.096776
    16  C    5.263671   6.574528   5.341546   4.695293   9.950880
    17  C    5.226732   5.853375   6.283933   2.385415   6.479560
    18  C    4.023951   4.297016   4.969635   4.651906   8.221957
    19  C    4.023987   4.958347   4.323469   5.430901   9.218410
    20  C    7.294959   7.640299   8.475888   4.289869   4.150585
    21  C    6.011347   6.365735   7.218511   2.836205   5.604987
    22  C    4.535750   5.147002   5.166571   5.370447   8.296595
    23  C    7.701117   8.215222   8.745652   5.158022   3.658201
    24  C    8.332706   8.503193   9.594338   5.104431   3.658502
    25  C    9.891000  10.220825  11.025033   7.079096   1.360755
    26  C    9.034022   9.514931  10.066789   6.516146   2.386287
    27  C    9.578159   9.764705  10.812301   6.473806   2.386844
    28  C   12.106996  12.307963  13.297697   9.162272   1.426887
    29  H    2.361647   2.713557   3.479438   1.994583  10.262228
    30  H    3.189091   4.471154   2.628651   4.938829  12.200376
    31  H    5.823687   6.893424   6.381434   3.831338   7.967682
    32  H    2.888345   2.569954   4.185981   3.697892   9.238925
    33  H    2.889881   4.187925   2.604835   5.273095  10.796365
    34  H    5.299005   6.691854   4.802237   6.048421  12.011885
    35  H    6.313644   7.643227   6.316915   5.625644  10.071540
    36  H    5.643711   6.452906   6.530894   3.323293   6.308428
    37  H    4.879964   4.915790   5.928122   5.031474   7.693328
    38  H    4.879982   5.920052   4.945527   6.269635   9.494157
    39  H    5.922849   6.051213   7.234664   2.524211   6.150242
    40  H    5.621785   6.199846   6.220032   6.175702   7.836538
    41  H    7.170531   7.836916   8.094336   5.038143   4.508159
    42  H    8.319297   8.349449   9.643948   4.905213   4.528538
    43  H    9.510858  10.086024  10.442336   7.280587   2.634023
    44  H   10.376395  10.459025  11.657575   7.163952   2.693896
    45  H   11.928713  12.007515  13.172271   9.075028   2.093728
    46  H   12.273086  12.482894  13.477535   9.075931   2.093784
    47  H   13.080565  13.303908  14.244119  10.213482   2.038972
                    6          7          8          9         10
     6  N    0.000000
     7  C    1.430526   0.000000
     8  C    2.458713   1.381932   0.000000
     9  C    2.711819   3.107910   3.601528   0.000000
    10  C    2.434783   1.394992   2.393793   3.810977   0.000000
    11  C    3.732280   2.416145   1.382928   4.594902   2.789743
    12  C    2.889073   2.486501   1.482743   3.770391   3.760177
    13  C    3.482826   4.007024   4.165974   1.383138   4.964043
    14  C    3.482666   3.347854   3.744665   1.383142   3.654308
    15  C    3.716253   2.416189   2.764398   4.762451   1.394940
    16  C    4.220318   2.789935   2.394403   5.096706   2.415992
    17  C    4.275667   3.760362   2.543092   4.463712   4.893872
    18  C    4.677723   4.913764   4.779600   2.395290   5.811070
    19  C    4.677666   4.392953   4.417324   2.395270   4.741564
    20  C    6.552094   6.223128   5.034886   6.296018   7.376193
    21  C    5.156252   4.905456   3.786027   5.218277   6.134741
    22  C    5.172651   5.076057   4.891194   2.765754   5.717476
    23  C    7.084660   6.567478   5.346579   6.479190   7.560571
    24  C    7.567424   7.369703   6.213246   7.425003   8.583097
    25  C    9.280467   8.871661   7.637437   8.677508   9.921592
    26  C    8.472908   7.944852   6.713844   7.733563   8.898117
    27  C    8.880531   8.619817   7.422526   8.541652   9.781789
    28  C   11.499843  11.165271   9.931343  10.916979  12.252059
    29  H    1.027558   2.090738   2.677009   3.223973   3.282763
    30  H    2.671442   2.167226   3.388331   4.049995   1.086265
    31  H    4.634766   3.415911   2.179309   5.329081   3.872887
    32  H    3.554764   4.367694   4.553780   2.163600   5.459739
    33  H    3.561879   3.238082   3.856842   2.164423   3.115460
    34  H    4.587250   3.400436   3.850450   5.542070   2.154251
    35  H    5.306430   3.876073   3.381377   6.050015   3.399951
    36  H    4.780699   4.002310   2.720333   4.703250   4.909890
    37  H    5.465854   5.776881   5.519239   3.381757   6.775543
    38  H    5.466759   4.976756   4.955729   3.381719   5.084322
    39  H    5.052641   5.072525   4.127347   5.347891   6.400013
    40  H    6.209101   6.022156   5.691812   3.851789   6.633128
    41  H    6.621681   5.980269   4.790872   5.870012   6.853130
    42  H    7.490265   7.441306   6.366213   7.602095   8.721245
    43  H    9.031511   8.407320   7.193523   8.107825   9.243599
    44  H    9.660109   9.479315   8.305494   9.411223  10.680823
    45  H   11.412039  11.211004  10.045245  10.751285  12.364529
    46  H   11.524654  11.164579   9.896885  11.198249  12.255592
    47  H   12.508343  12.137133  10.893279  11.832299  13.187452
                   11         12         13         14         15
    11  C    0.000000
    12  C    2.453869   0.000000
    13  C    5.202843   3.826101   0.000000
    14  C    4.364143   4.254829   2.416105   0.000000
    15  C    2.415907   4.246881   5.868449   4.282979   0.000000
    16  C    1.394858   3.738648   5.971055   4.603347   1.394777
    17  C    2.895614   1.489503   4.230276   4.747062   5.096671
    18  C    5.563890   4.354707   1.394787   2.789788   6.479439
    19  C    4.789000   4.735862   2.789674   1.394865   5.088270
    20  C    5.217047   3.844432   5.599245   6.618347   7.516120
    21  C    4.221291   2.465947   4.645593   5.684085   6.426307
    22  C    5.374962   4.781041   2.415819   2.416017   6.140852
    23  C    5.262342   4.439753   5.868130   6.522631   7.513702
    24  C    6.456244   4.910474   6.600442   7.875048   8.776755
    25  C    7.556289   6.581041   7.870498   8.815379   9.874046
    26  C    6.529319   5.828916   7.051945   7.713448   8.772551
    27  C    7.524770   6.194957   7.672167   8.886500   9.875859
    28  C    9.861548   8.800723  10.003140  11.119850  12.211801
    29  H    4.034766   2.605326   3.619988   4.190317   4.464638
    30  H    3.875692   4.649974   5.310995   3.943487   2.141073
    31  H    1.084772   2.705547   5.734830   5.091069   3.379220
    32  H    5.734278   3.972447   1.085416   3.407061   6.486515
    33  H    4.319280   4.697845   3.407559   1.085327   3.660700
    34  H    3.400026   5.332905   6.736023   4.926396   1.086068
    35  H    2.154658   4.607212   6.896894   5.418965   2.153581
    36  H    2.590766   2.220141   4.609572   4.668480   4.847392
    37  H    6.306350   4.845595   2.154141   3.875844   7.441180
    38  H    5.052761   5.446728   3.875751   2.154135   5.173996
    39  H    4.811837   2.659511   4.675733   6.050878   6.876434
    40  H    6.009454   5.515757   3.399995   3.400159   6.912638
    41  H    4.589976   4.134427   5.421380   5.729126   6.724322
    42  H    6.764200   4.966687   6.753057   8.215596   9.032864
    43  H    6.867495   6.479079   7.499680   7.913400   9.003432
    44  H    8.460357   7.017041   8.484427   9.840095  10.818916
    45  H   10.122282   8.827918   9.736101  11.057616  12.444376
    46  H    9.797847   8.754774  10.338964  11.441688  12.192121
    47  H   10.759767   9.808356  10.919785  11.970901  13.093363
                   16         17         18         19         20
    16  C    0.000000
    17  C    4.265451   0.000000
    18  C    6.370145   4.284494   0.000000
    19  C    5.110587   4.795459   2.415897   0.000000
    20  C    6.549656   2.492063   5.190410   6.276202   0.000000
    21  C    5.602709   1.352168   4.566347   5.619471   1.454401
    22  C    5.984329   4.572504   1.394721   1.394873   5.564177
    23  C    6.459293   2.961042   5.202719   5.931072   1.394693
    24  C    7.812773   3.711893   6.211381   7.551872   1.395031
    25  C    8.765197   5.144025   7.104565   8.138791   2.789830
    26  C    7.660782   4.346576   6.231675   6.971403   2.415876
    27  C    8.831967   4.889077   7.095652   8.393732   2.416118
    28  C   11.076966   7.413204   9.206358  10.408819   4.965837
    29  H    4.762766   4.021989   4.815657   5.257879   6.133315
    30  H    3.391801   5.861635   6.277658   5.172538   8.332077
    31  H    2.123303   2.618331   5.901578   5.278331   4.621794
    32  H    6.603946   4.473938   2.141493   3.874907   5.675919
    33  H    4.228076   5.330434   3.874941   2.140658   7.388277
    34  H    2.153882   6.150733   7.330768   5.712979   8.539691
    35  H    1.086185   4.899409   7.161448   5.752113   6.983704
    36  H    3.847173   1.081329   4.457369   4.518312   2.761245
    37  H    7.232137   4.572486   1.086060   3.399995   4.954485
    38  H    5.158692   5.402527   3.400048   1.086077   6.835473
    39  H    6.195373   2.110627   4.800427   6.147692   2.157780
    40  H    6.621507   5.046169   2.153940   2.154036   5.632013
    41  H    5.680629   2.716966   4.723888   5.074103   2.182494
    42  H    8.151112   4.017218   6.549205   8.048797   2.165964
    43  H    7.869150   5.005925   6.561467   7.030578   3.398557
    44  H    9.787716   5.795686   7.951176   9.384113   3.371720
    45  H   11.386590   7.502830   8.946188  10.368765   5.013749
    46  H   11.024932   7.410416   9.659100  10.831193   5.013721
    47  H   11.931927   8.393934  10.050907  11.183899   5.977805
                   21         22         23         24         25
    21  C    0.000000
    22  C    5.084294   0.000000
    23  C    2.468126   5.238320   0.000000
    24  C    2.467298   6.731542   2.415976   0.000000
    25  C    4.244231   7.254149   2.416106   2.416029   0.000000
    26  C    3.747058   6.186233   1.394906   2.789690   1.394903
    27  C    3.746532   7.492968   2.789798   1.394879   1.394906
    28  C    6.382515   9.428545   4.793327   4.103751   2.378159
    29  H    4.695701   5.519136   6.848402   7.013332   8.906369
    30  H    7.053411   6.219630   8.547563   9.517532  10.909484
    31  H    3.841387   5.684703   4.577012   5.833784   6.773553
    32  H    4.663763   3.391716   6.174178   6.501813   8.008662
    33  H    6.405636   3.391316   7.261339   8.682173   9.615119
    34  H    7.488772   6.882838   8.462737   9.814392  10.821256
    35  H    6.202983   6.636836   6.741435   8.240241   8.965445
    36  H    2.122831   4.410465   2.700514   4.107498   5.045254
    37  H    4.535043   2.153796   5.021404   5.798670   6.635842
    38  H    6.298783   2.154041   6.298401   8.153230   8.491954
    39  H    1.087873   5.568638   3.397726   2.648667   4.811836
    40  H    5.429306   1.086036   5.089077   6.754613   6.919763
    41  H    2.732560   4.526945   1.085880   3.417677   3.380502
    42  H    2.701304   7.244412   3.408104   1.087484   3.394723
    43  H    4.617608   6.296459   2.151399   3.876310   2.157728
    44  H    4.577874   8.441509   3.872731   2.111157   2.192433
    45  H    6.368601   9.294830   5.013838   4.032655   2.718379
    46  H    6.368468   9.925152   5.013788   4.032646   2.718507
    47  H    7.412743  10.195089   5.664791   5.183384   3.272995
                   26         27         28         29         30
    26  C    0.000000
    27  C    2.415979   0.000000
    28  C    3.670695   2.709110   0.000000
    29  H    8.231214   8.368946  11.038677   0.000000
    30  H    9.892255  10.741461  13.237666   3.602030   0.000000
    31  H    5.762728   6.803839   9.038438   4.784867   4.958234
    32  H    7.353925   7.631168  10.029940   3.423890   5.757329
    33  H    8.465070   9.711395  11.954619   4.443786   3.253180
    34  H    9.680087  10.881523  13.159929   5.396614   2.460913
    35  H    7.826264   9.148982  11.234891   5.832057   4.284878
    36  H    4.025848   5.078000   7.389494   4.728630   5.933460
    37  H    5.912396   6.585458   8.588924   5.438557   7.272893
    38  H    7.236216   8.897706  10.759488   6.124918   5.513591
    39  H    4.559949   4.032897   6.735960   4.406516   7.232914
    40  H    5.829111   7.328453   9.009317   6.520514   7.184077
    41  H    2.123868   3.874591   5.745887   6.537245   7.839036
    42  H    3.877054   2.144579   4.715223   6.813369   9.608497
    43  H    1.086640   3.402711   4.051586   8.894606  10.237070
    44  H    3.423043   1.084675   2.409215   9.072404  11.624928
    45  H    4.032901   2.718244   1.095323  10.905722  13.308242
    46  H    4.032967   2.718289   1.095268  11.014636  13.258807
    47  H    4.424815   3.789082   1.094956  12.077361  14.181086
                   31         32         33         34         35
    31  H    0.000000
    32  H    6.245088   0.000000
    33  H    5.165099   4.317600   0.000000
    34  H    4.268581   7.394234   4.128606   0.000000
    35  H    2.435903   7.578718   5.003415   2.479892   0.000000
    36  H    2.104354   5.066410   5.172369   5.832605   4.309312
    37  H    6.516656   2.462290   4.960982   8.330623   7.999514
    38  H    5.487084   4.960966   2.460914   5.646944   5.626276
    39  H    4.573189   4.442244   6.797284   7.959516   6.894255
    40  H    6.166101   4.285570   4.284926   7.621566   7.151145
    41  H    3.957622   5.900658   6.407213   7.627667   5.932046
    42  H    6.225677   6.488550   9.020155  10.094998   8.658812
    43  H    6.088031   7.924289   8.620176   9.839223   7.925892
    44  H    7.743569   8.341501  10.683097  11.837672  10.117549
    45  H    9.379457   9.675055  11.952212  13.426853  11.640155
    46  H    8.933655  10.324765  12.235474  13.144143  11.162716
    47  H    9.910328  10.985536  12.800178  14.014054  12.031236
                   36         37         38         39         40
    36  H    0.000000
    37  H    4.826352   0.000000
    38  H    4.929049   4.296790   0.000000
    39  H    3.079678   4.683887   6.942698   0.000000
    40  H    4.751203   2.480529   2.480772   6.010480   0.000000
    41  H    2.127478   4.732771   5.341475   3.775072   4.379450
    42  H    4.635362   6.122105   8.743700   2.439879   7.386611
    43  H    4.486091   6.292994   7.139847   5.508318   5.793698
    44  H    6.074402   7.368674   9.925765   4.669850   8.283977
    45  H    7.599108   8.231132  10.801072   6.586330   8.893438
    46  H    7.436021   9.099583  11.205809   6.668239   9.597271
    47  H    8.295417   9.418682  11.469565   7.806692   9.692231
                   41         42         43         44         45
    41  H    0.000000
    42  H    4.332575   0.000000
    43  H    2.430219   4.963687   0.000000
    44  H    4.958051   2.400693   4.333726   0.000000
    45  H    6.000640   4.510101   4.528765   2.228339   0.000000
    46  H    6.007515   4.509508   4.530858   2.228175   1.819010
    47  H    6.544911   5.810060   4.582828   3.486837   1.760308
                   46         47
    46  H    0.000000
    47  H    1.760323   0.000000
 Stoichiometry    C22H19NO4S
 Framework group  C1[X(C22H19NO4S)]
 Deg. of freedom   135
 Full point group                 C1      NOp   1
 Largest Abelian subgroup         C1      NOp   1
 Largest concise Abelian subgroup C1      NOp   1
                         Standard orientation:                         
 ---------------------------------------------------------------------
 Center     Atomic      Atomic             Coordinates (Angstroms)
 Number     Number       Type             X           Y           Z
 ---------------------------------------------------------------------
      1         16           0        3.885439   -1.061121   -0.807437
      2          8           0        3.890938   -2.023920   -1.892964
      3          8           0        5.104747   -0.805415   -0.065001
      4          8           0        0.676563    0.745739   -2.185206
      5          8           0       -7.156496   -0.216699    0.805719
      6          7           0        3.219764    0.420150   -1.378478
      7          6           0        2.827975    1.410989   -0.423940
      8          6           0        1.505200    1.767583   -0.242712
      9          6           0        2.652979   -1.595135    0.345281
     10          6           0        3.810274    2.035872    0.344573
     11          6           0        1.128223    2.726484    0.679722
     12          6           0        0.437232    1.121335   -1.042922
     13          6           0        1.615683   -2.394475   -0.099851
     14          6           0        2.752087   -1.201975    1.667659
     15          6           0        3.451450    3.005767    1.280740
     16          6           0        2.110525    3.351158    1.448156
     17          6           0       -0.908223    0.985405   -0.418509
     18          6           0        0.644169   -2.814817    0.808391
     19          6           0        1.780477   -1.622527    2.575821
     20          6           0       -3.285569    0.263730   -0.612898
     21          6           0       -1.929526    0.432328   -1.110899
     22          6           0        0.726569   -2.428952    2.146138
     23          6           0       -3.533288    0.285949    0.759439
     24          6           0       -4.338889    0.080068   -1.508943
     25          6           0       -5.887551   -0.059403    0.340218
     26          6           0       -4.834227    0.124239    1.236063
     27          6           0       -5.639831   -0.081443   -1.032340
     28          6           0       -8.186395   -0.400015   -0.164698
     29          1           0        2.632804    0.358053   -2.219607
     30          1           0        4.862143    1.796836    0.216491
     31          1           0        0.105279    3.062105    0.812665
     32          1           0        1.528258   -2.697154   -1.138539
     33          1           0        3.564916   -0.576988    2.023516
     34          1           0        4.216761    3.497107    1.874397
     35          1           0        1.833193    4.114935    2.168940
     36          1           0       -1.038328    1.307821    0.605402
     37          1           0       -0.178653   -3.439515    0.473363
     38          1           0        1.844183   -1.321671    3.617449
     39          1           0       -1.765993    0.110714   -2.137198
     40          1           0       -0.030717   -2.755056    2.852997
     41          1           0       -2.744970    0.403053    1.496988
     42          1           0       -4.164446    0.061521   -2.582184
     43          1           0       -5.020954    0.137306    2.306459
     44          1           0       -6.410661   -0.219447   -1.782871
     45          1           0       -8.040205   -1.322363   -0.737091
     46          1           0       -8.290785    0.477772   -0.811386
     47          1           0       -9.129289   -0.508782    0.381241
 ---------------------------------------------------------------------
 Rotational constants (GHZ):           0.3198744           0.0802607           0.0754635
 Standard basis: 6-311++G(d,p) (5D, 7F)
 There are   785 symmetry adapted cartesian basis functions of A   symmetry.
 There are   757 symmetry adapted basis functions of A   symmetry.
   757 basis functions,  1193 primitive gaussians,   785 cartesian basis functions
   103 alpha electrons      103 beta electrons
       nuclear repulsion energy      2672.9440556965 Hartrees.
 NAtoms=   47 NActive=   47 NUniq=   47 SFac= 1.00D+00 NAtFMM=   60 NAOKFM=F Big=F
 Integral buffers will be    131072 words long.
 Raffenetti 2 integral format.
 Two-electron integral symmetry is turned on.
 R6APFD:  NTU= -4 IXU= 1 FactS= 1.050
 Nuclear repulsion after empirical dispersion term =     2672.8960823045 Hartrees.
 One-electron integrals computed using PRISM.
 NBasis=   757 RedAO= T EigKep=  1.43D-06  NBF=   757
 NBsUse=   750 1.00D-06 EigRej=  7.55D-07 NBFU=   750
 ExpMin= 3.60D-02 ExpMax= 9.34D+04 ExpMxC= 3.17D+03 IAcc=3 IRadAn=         5 AccDes= 0.00D+00
 Harris functional with IExCor= 1009 and IRadAn=       5 diagonalized for initial guess.
 HarFok:  IExCor= 1009 AccDes= 0.00D+00 IRadAn=         5 IDoV= 1 UseB2=F ITyADJ=14
 ICtDFT=  3500011 ScaDFX=  1.000000  1.000000  1.000000  1.000000
 FoFCou: FMM=F IPFlag=           0 FMFlag=      100000 FMFlg1=           0
         NFxFlg=           0 DoJE=T BraDBF=F KetDBF=T FulRan=T
         wScrn=  0.000000 ICntrl=       500 IOpCl=  0 I1Cent=   200000004 NGrid=           0
         NMat0=    1 NMatS0=      1 NMatT0=    0 NMatD0=    1 NMtDS0=    0 NMtDT0=    0
 Petite list used in FoFCou.
 Requested convergence on RMS density matrix=1.00D-08 within  32 cycles.
 Requested convergence on MAX density matrix=1.00D-06.
 Requested convergence on             energy=1.00D-06.
 No special actions if energy rises.
 SCF Done:  E(RM08HX) =  -1603.50578257     A.U. after   18 cycles
            NFock= 18  Conv=0.57D-08     -V/T= 2.0036
 QCSCF skips out because SCF is already converged.

 **********************************************************************

            Population analysis using the SCF Density.

 **********************************************************************

 Orbital symmetries:
       Occupied  (A) (A) (A) (A) (A) (A) (A) (A) (A) (A) (A) (A)
                 (A) (A) (A) (A) (A) (A) (A) (A) (A) (A) (A) (A)
                 (A) (A) (A) (A) (A) (A) (A) (A) (A) (A) (A) (A)
                 (A) (A) (A) (A) (A) (A) (A) (A) (A) (A) (A) (A)
                 (A) (A) (A) (A) (A) (A) (A) (A) (A) (A) (A) (A)
                 (A) (A) (A) (A) (A) (A) (A) (A) (A) (A) (A) (A)
                 (A) (A) (A) (A) (A) (A) (A) (A) (A) (A) (A) (A)
                 (A) (A) (A) (A) (A) (A) (A) (A) (A) (A) (A) (A)
                 (A) (A) (A) (A) (A) (A) (A)
       Virtual   (A) (A) (A) (A) (A) (A) (A) (A) (A) (A) (A) (A)
                 (A) (A) (A) (A) (A) (A) (A) (A) (A) (A) (A) (A)
                 (A) (A) (A) (A) (A) (A) (A) (A) (A) (A) (A) (A)
                 (A) (A) (A) (A) (A) (A) (A) (A) (A) (A) (A) (A)
                 (A) (A) (A) (A) (A) (A) (A) (A) (A) (A) (A) (A)
                 (A) (A) (A) (A) (A) (A) (A) (A) (A) (A) (A) (A)
                 (A) (A) (A) (A) (A) (A) (A) (A) (A) (A) (A) (A)
                 (A) (A) (A) (A) (A) (A) (A) (A) (A) (A) (A) (A)
                 (A) (A) (A) (A) (A) (A) (A) (A) (A) (A) (A) (A)
                 (A) (A) (A) (A) (A) (A) (A) (A) (A) (A) (A) (A)
                 (A) (A) (A) (A) (A) (A) (A) (A) (A) (A) (A) (A)
                 (A) (A) (A) (A) (A) (A) (A) (A) (A) (A) (A) (A)
                 (A) (A) (A) (A) (A) (A) (A) (A) (A) (A) (A) (A)
                 (A) (A) (A) (A) (A) (A) (A) (A) (A) (A) (A) (A)
                 (A) (A) (A) (A) (A) (A) (A) (A) (A) (A) (A) (A)
                 (A) (A) (A) (A) (A) (A) (A) (A) (A) (A) (A) (A)
                 (A) (A) (A) (A) (A) (A) (A) (A) (A) (A) (A) (A)
                 (A) (A) (A) (A) (A) (A) (A) (A) (A) (A) (A) (A)
                 (A) (A) (A) (A) (A) (A) (A) (A) (A) (A) (A) (A)
                 (A) (A) (A) (A) (A) (A) (A) (A) (A) (A) (A) (A)
                 (A) (A) (A) (A) (A) (A) (A) (A) (A) (A) (A) (A)
                 (A) (A) (A) (A) (A) (A) (A) (A) (A) (A) (A) (A)
                 (A) (A) (A) (A) (A) (A) (A) (A) (A) (A) (A) (A)
                 (A) (A) (A) (A) (A) (A) (A) (A) (A) (A) (A) (A)
                 (A) (A) (A) (A) (A) (A) (A) (A) (A) (A) (A) (A)
                 (A) (A) (A) (A) (A) (A) (A) (A) (A) (A) (A) (A)
                 (A) (A) (A) (A) (A) (A) (A) (A) (A) (A) (A) (A)
                 (A) (A) (A) (A) (A) (A) (A) (A) (A) (A) (A) (A)
                 (A) (A) (A) (A) (A) (A) (A) (A) (A) (A) (A) (A)
                 (A) (A) (A) (A) (A) (A) (A) (A) (A) (A) (A) (A)
                 (A) (A) (A) (A) (A) (A) (A) (A) (A) (A) (A) (A)
                 (A) (A) (A) (A) (A) (A) (A) (A) (A) (A) (A) (A)
                 (A) (A) (A) (A) (A) (A) (A) (A) (A) (A) (A) (A)
                 (A) (A) (A) (A) (A) (A) (A) (A) (A) (A) (A) (A)
                 (A) (A) (A) (A) (A) (A) (A) (A) (A) (A) (A) (A)
                 (A) (A) (A) (A) (A) (A) (A) (A) (A) (A) (A) (A)
                 (A) (A) (A) (A) (A) (A) (A) (A) (A) (A) (A) (A)
                 (A) (A) (A) (A) (A) (A) (A) (A) (A) (A) (A) (A)
                 (A) (A) (A) (A) (A) (A) (A) (A) (A) (A) (A) (A)
                 (A) (A) (A) (A) (A) (A) (A) (A) (A) (A) (A) (A)
                 (A) (A) (A) (A) (A) (A) (A) (A) (A) (A) (A) (A)
                 (A) (A) (A) (A) (A) (A) (A) (A) (A) (A) (A) (A)
                 (A) (A) (A) (A) (A) (A) (A) (A) (A) (A) (A) (A)
                 (A) (A) (A) (A) (A) (A) (A) (A) (A) (A) (A) (A)
                 (A) (A) (A) (A) (A) (A) (A) (A) (A) (A) (A) (A)
                 (A) (A) (A) (A) (A) (A) (A) (A) (A) (A) (A) (A)
                 (A) (A) (A) (A) (A) (A) (A) (A) (A) (A) (A) (A)
                 (A) (A) (A) (A) (A) (A) (A) (A) (A) (A) (A) (A)
                 (A) (A) (A) (A) (A) (A) (A) (A) (A) (A) (A) (A)
                 (A) (A) (A) (A) (A) (A) (A) (A) (A) (A) (A) (A)
                 (A) (A) (A) (A) (A) (A) (A) (A) (A) (A) (A) (A)
                 (A) (A) (A) (A) (A) (A) (A) (A) (A) (A) (A) (A)
                 (A) (A) (A) (A) (A) (A) (A) (A) (A) (A) (A) (A)
                 (A) (A) (A) (A) (A) (A) (A) (A) (A) (A) (A)
 The electronic state is 1-A.
 Alpha  occ. eigenvalues --  -90.08790 -19.66264 -19.60987 -19.60779 -19.60585
 Alpha  occ. eigenvalues --  -14.77371 -10.63819 -10.62159 -10.60243 -10.59948
 Alpha  occ. eigenvalues --  -10.57740 -10.56914 -10.56201 -10.56182 -10.56148
 Alpha  occ. eigenvalues --  -10.56043 -10.56029 -10.55988 -10.55971 -10.55740
 Alpha  occ. eigenvalues --  -10.55721 -10.55569 -10.55531 -10.55521 -10.55426
 Alpha  occ. eigenvalues --  -10.55347 -10.55203 -10.55094  -8.42348  -6.37239
 Alpha  occ. eigenvalues --   -6.37221  -6.37101  -1.24689  -1.20980  -1.17815
 Alpha  occ. eigenvalues --   -1.12759  -1.05300  -0.99827  -0.99695  -0.98216
 Alpha  occ. eigenvalues --   -0.92818  -0.89454  -0.89060  -0.88030  -0.87272
 Alpha  occ. eigenvalues --   -0.86185  -0.86129  -0.81919  -0.77424  -0.76009
 Alpha  occ. eigenvalues --   -0.73124  -0.72838  -0.71800  -0.71582  -0.68755
 Alpha  occ. eigenvalues --   -0.68109  -0.64814  -0.64223  -0.63368  -0.61375
 Alpha  occ. eigenvalues --   -0.60220  -0.59758  -0.58281  -0.57164  -0.57131
 Alpha  occ. eigenvalues --   -0.56889  -0.55909  -0.55524  -0.54761  -0.53891
 Alpha  occ. eigenvalues --   -0.53527  -0.53097  -0.52084  -0.52059  -0.51980
 Alpha  occ. eigenvalues --   -0.51162  -0.50013  -0.49424  -0.48193  -0.47563
 Alpha  occ. eigenvalues --   -0.46776  -0.46333  -0.45161  -0.44917  -0.44857
 Alpha  occ. eigenvalues --   -0.44682  -0.43968  -0.43051  -0.42717  -0.42242
 Alpha  occ. eigenvalues --   -0.41467  -0.40695  -0.39336  -0.38473  -0.38105
 Alpha  occ. eigenvalues --   -0.36191  -0.34512  -0.33563  -0.33429  -0.33356
 Alpha  occ. eigenvalues --   -0.33033  -0.30344  -0.28618
 Alpha virt. eigenvalues --   -0.07226  -0.04154  -0.03515  -0.02763  -0.02494
 Alpha virt. eigenvalues --   -0.02116  -0.01966  -0.01724  -0.01576  -0.01324
 Alpha virt. eigenvalues --   -0.01114  -0.00747  -0.00547  -0.00398  -0.00015
 Alpha virt. eigenvalues --    0.00427   0.00591   0.00943   0.01433   0.01833
 Alpha virt. eigenvalues --    0.02257   0.02485   0.02615   0.02914   0.03409
 Alpha virt. eigenvalues --    0.03788   0.04039   0.04380   0.05050   0.05358
 Alpha virt. eigenvalues --    0.05370   0.05726   0.06147   0.06511   0.06842
 Alpha virt. eigenvalues --    0.07257   0.07331   0.07842   0.08235   0.08570
 Alpha virt. eigenvalues --    0.08771   0.08995   0.09150   0.09300   0.09394
 Alpha virt. eigenvalues --    0.09604   0.09991   0.10196   0.10336   0.10615
 Alpha virt. eigenvalues --    0.10821   0.10949   0.11062   0.11248   0.11547
 Alpha virt. eigenvalues --    0.11615   0.12006   0.12112   0.12236   0.12392
 Alpha virt. eigenvalues --    0.12577   0.12642   0.12920   0.13156   0.13360
 Alpha virt. eigenvalues --    0.13543   0.13978   0.14360   0.14376   0.14634
 Alpha virt. eigenvalues --    0.14717   0.15071   0.15183   0.15483   0.15752
 Alpha virt. eigenvalues --    0.15862   0.16011   0.16179   0.16422   0.16807
 Alpha virt. eigenvalues --    0.16866   0.17060   0.17294   0.17423   0.17877
 Alpha virt. eigenvalues --    0.17992   0.18253   0.18493   0.18934   0.18969
 Alpha virt. eigenvalues --    0.19316   0.19682   0.19900   0.20355   0.20478
 Alpha virt. eigenvalues --    0.21130   0.21288   0.21502   0.21759   0.21928
 Alpha virt. eigenvalues --    0.22184   0.22430   0.22636   0.23065   0.23411
 Alpha virt. eigenvalues --    0.23531   0.23657   0.23933   0.24185   0.24560
 Alpha virt. eigenvalues --    0.24601   0.24785   0.25144   0.25337   0.25889
 Alpha virt. eigenvalues --    0.26009   0.26137   0.26595   0.27085   0.27395
 Alpha virt. eigenvalues --    0.27486   0.27740   0.28046   0.28498   0.28695
 Alpha virt. eigenvalues --    0.28792   0.29164   0.29521   0.29898   0.30270
 Alpha virt. eigenvalues --    0.30403   0.30657   0.30935   0.31108   0.31337
 Alpha virt. eigenvalues --    0.31573   0.31812   0.31940   0.32057   0.32626
 Alpha virt. eigenvalues --    0.32813   0.33074   0.33179   0.33372   0.33830
 Alpha virt. eigenvalues --    0.34125   0.34941   0.34943   0.35262   0.35575
 Alpha virt. eigenvalues --    0.35771   0.36427   0.36686   0.36915   0.37425
 Alpha virt. eigenvalues --    0.37649   0.37834   0.38245   0.38657   0.38742
 Alpha virt. eigenvalues --    0.39131   0.39829   0.40109   0.40705   0.40839
 Alpha virt. eigenvalues --    0.41117   0.41299   0.41592   0.42773   0.43721
 Alpha virt. eigenvalues --    0.43773   0.44770   0.45559   0.45920   0.46828
 Alpha virt. eigenvalues --    0.47288   0.48473   0.49217   0.49819   0.51171
 Alpha virt. eigenvalues --    0.51707   0.52069   0.53413   0.53868   0.54096
 Alpha virt. eigenvalues --    0.54487   0.54888   0.55910   0.56678   0.57017
 Alpha virt. eigenvalues --    0.57602   0.57736   0.57968   0.58773   0.59310
 Alpha virt. eigenvalues --    0.59500   0.59792   0.60469   0.60530   0.60975
 Alpha virt. eigenvalues --    0.61217   0.62066   0.62679   0.63047   0.63485
 Alpha virt. eigenvalues --    0.64130   0.64867   0.64879   0.65027   0.65728
 Alpha virt. eigenvalues --    0.66127   0.66449   0.67170   0.67522   0.67823
 Alpha virt. eigenvalues --    0.68425   0.69025   0.69364   0.69753   0.69889
 Alpha virt. eigenvalues --    0.70264   0.70537   0.71428   0.71490   0.72196
 Alpha virt. eigenvalues --    0.72384   0.72970   0.73335   0.73732   0.74391
 Alpha virt. eigenvalues --    0.74610   0.74927   0.75164   0.75315   0.76333
 Alpha virt. eigenvalues --    0.76980   0.77025   0.77278   0.77808   0.78400
 Alpha virt. eigenvalues --    0.78641   0.79175   0.80058   0.80279   0.80872
 Alpha virt. eigenvalues --    0.81101   0.81217   0.82301   0.82600   0.82866
 Alpha virt. eigenvalues --    0.83496   0.84384   0.84675   0.85260   0.85987
 Alpha virt. eigenvalues --    0.86604   0.87064   0.87230   0.87894   0.88072
 Alpha virt. eigenvalues --    0.88786   0.89018   0.90115   0.90591   0.90893
 Alpha virt. eigenvalues --    0.91119   0.91409   0.91792   0.92090   0.92521
 Alpha virt. eigenvalues --    0.93045   0.93563   0.94497   0.94774   0.95857
 Alpha virt. eigenvalues --    0.96344   0.97334   0.97974   0.98221   0.98869
 Alpha virt. eigenvalues --    0.99462   1.00842   1.01564   1.01819   1.02199
 Alpha virt. eigenvalues --    1.02836   1.03910   1.04090   1.04332   1.04867
 Alpha virt. eigenvalues --    1.05633   1.05715   1.06343   1.06522   1.06761
 Alpha virt. eigenvalues --    1.07720   1.08571   1.08760   1.09739   1.10167
 Alpha virt. eigenvalues --    1.10606   1.11713   1.12370   1.12872   1.13243
 Alpha virt. eigenvalues --    1.14529   1.15720   1.16449   1.16572   1.17042
 Alpha virt. eigenvalues --    1.17993   1.19073   1.19149   1.20236   1.21296
 Alpha virt. eigenvalues --    1.21759   1.22648   1.23710   1.25522   1.26077
 Alpha virt. eigenvalues --    1.27295   1.27569   1.28492   1.28706   1.29063
 Alpha virt. eigenvalues --    1.29522   1.30726   1.31381   1.32276   1.32478
 Alpha virt. eigenvalues --    1.33752   1.34251   1.35162   1.36162   1.37716
 Alpha virt. eigenvalues --    1.40704   1.42334   1.43503   1.44493   1.45184
 Alpha virt. eigenvalues --    1.48964   1.50113   1.50405   1.51792   1.52436
 Alpha virt. eigenvalues --    1.52944   1.53680   1.54179   1.55193   1.55521
 Alpha virt. eigenvalues --    1.55861   1.56385   1.56813   1.57515   1.58445
 Alpha virt. eigenvalues --    1.58842   1.59153   1.59764   1.59993   1.60347
 Alpha virt. eigenvalues --    1.60488   1.61627   1.62438   1.62871   1.63668
 Alpha virt. eigenvalues --    1.65317   1.65865   1.66532   1.66909   1.67543
 Alpha virt. eigenvalues --    1.68316   1.68825   1.69789   1.71140   1.71406
 Alpha virt. eigenvalues --    1.71696   1.72444   1.72488   1.73358   1.74572
 Alpha virt. eigenvalues --    1.74681   1.75708   1.76370   1.76931   1.77569
 Alpha virt. eigenvalues --    1.78007   1.78214   1.79691   1.80386   1.80640
 Alpha virt. eigenvalues --    1.81366   1.81651   1.83478   1.83789   1.84156
 Alpha virt. eigenvalues --    1.85346   1.87386   1.87566   1.88426   1.89826
 Alpha virt. eigenvalues --    1.91541   1.92549   1.93268   1.93880   1.94571
 Alpha virt. eigenvalues --    1.94945   1.96146   1.96315   1.96603   1.96995
 Alpha virt. eigenvalues --    1.97043   1.97883   1.98367   1.98922   1.99325
 Alpha virt. eigenvalues --    1.99865   2.00488   2.00995   2.01246   2.02474
 Alpha virt. eigenvalues --    2.03101   2.03423   2.04230   2.05847   2.07172
 Alpha virt. eigenvalues --    2.07319   2.08323   2.08579   2.09502   2.09818
 Alpha virt. eigenvalues --    2.10275   2.10837   2.11782   2.11992   2.12411
 Alpha virt. eigenvalues --    2.13670   2.14525   2.14957   2.16075   2.18174
 Alpha virt. eigenvalues --    2.18854   2.20629   2.21240   2.23471   2.26203
 Alpha virt. eigenvalues --    2.28579   2.31065   2.31857   2.33073   2.33699
 Alpha virt. eigenvalues --    2.35014   2.35176   2.37904   2.38109   2.39824
 Alpha virt. eigenvalues --    2.40827   2.42575   2.43434   2.44137   2.45295
 Alpha virt. eigenvalues --    2.45532   2.45798   2.46918   2.48082   2.49159
 Alpha virt. eigenvalues --    2.49727   2.50695   2.52486   2.52700   2.55141
 Alpha virt. eigenvalues --    2.56435   2.57883   2.59622   2.61323   2.63246
 Alpha virt. eigenvalues --    2.63311   2.64383   2.64710   2.66720   2.67990
 Alpha virt. eigenvalues --    2.69400   2.69522   2.70549   2.70915   2.71239
 Alpha virt. eigenvalues --    2.71779   2.72118   2.72714   2.73345   2.73836
 Alpha virt. eigenvalues --    2.74746   2.75210   2.75345   2.76004   2.76675
 Alpha virt. eigenvalues --    2.76940   2.77865   2.78513   2.80077   2.80578
 Alpha virt. eigenvalues --    2.81439   2.82652   2.83795   2.84838   2.85670
 Alpha virt. eigenvalues --    2.86199   2.86422   2.89085   2.89274   2.89524
 Alpha virt. eigenvalues --    2.90097   2.90890   2.91413   2.92013   2.93406
 Alpha virt. eigenvalues --    2.93625   2.94050   2.94346   2.95208   2.95411
 Alpha virt. eigenvalues --    2.95773   2.96716   2.97106   2.99057   2.99580
 Alpha virt. eigenvalues --    3.00153   3.01167   3.01880   3.04435   3.06417
 Alpha virt. eigenvalues --    3.08529   3.09784   3.10603   3.11204   3.11512
 Alpha virt. eigenvalues --    3.12372   3.12668   3.13087   3.13773   3.16525
 Alpha virt. eigenvalues --    3.17155   3.18735   3.19270   3.20976   3.22677
 Alpha virt. eigenvalues --    3.26725   3.28564   3.28963   3.29443   3.29662
 Alpha virt. eigenvalues --    3.35945   3.36220   3.38036   3.39676   3.42590
 Alpha virt. eigenvalues --    3.45305   3.45574   3.46455   3.47042   3.47561
 Alpha virt. eigenvalues --    3.49958   3.53615   3.54520   3.56108   3.58061
 Alpha virt. eigenvalues --    3.59825   3.59980   3.60741   3.62323   3.64105
 Alpha virt. eigenvalues --    3.66529   3.67718   3.69049   3.69562   3.71884
 Alpha virt. eigenvalues --    3.74667   3.81041   3.83024   3.85618   3.87522
 Alpha virt. eigenvalues --    3.96494   3.99156   4.02654   4.04495   4.07474
 Alpha virt. eigenvalues --    4.08342   4.12576   4.12878   4.14330   4.20191
 Alpha virt. eigenvalues --    4.20474   4.20666   4.21348   4.23836   4.27144
 Alpha virt. eigenvalues --    4.30865   4.43305   4.44756   4.67485   4.90649
 Alpha virt. eigenvalues --    4.91558   4.92153   4.96631   5.14916   5.20096
 Alpha virt. eigenvalues --    5.22306   5.23033   5.23794   5.26918   5.31079
 Alpha virt. eigenvalues --    5.44824   5.46670   5.49986   5.87027   5.92301
 Alpha virt. eigenvalues --    8.38574  17.57587  17.65990  17.78671  23.65005
 Alpha virt. eigenvalues --   23.68541  23.71355  23.88221  23.93447  23.96307
 Alpha virt. eigenvalues --   23.99025  24.00447  24.01676  24.02236  24.04204
 Alpha virt. eigenvalues --   24.05379  24.10395  24.12752  24.13622  24.13908
 Alpha virt. eigenvalues --   24.13959  24.15414  24.21832  24.23510  24.24163
 Alpha virt. eigenvalues --   24.24265  35.62562  49.92961  49.96344  49.96672
 Alpha virt. eigenvalues --   50.04791 189.18717
          Condensed to atoms (all electrons):
               1          2          3          4          5          6
     1  S   28.509229  -2.027902   1.907607   0.100910   0.000000  -3.385656
     2  O   -2.027902   9.752807  -0.805295   0.005663  -0.000000  -0.148857
     3  O    1.907607  -0.805295   9.258939   0.000930   0.000000  -0.375597
     4  O    0.100910   0.005663   0.000930   7.793064   0.000000  -0.127903
     5  O    0.000000  -0.000000   0.000000   0.000000   8.158387  -0.000000
     6  N   -3.385656  -0.148857  -0.375597  -0.127903  -0.000000  11.815334
     7  C   -1.380217  -0.609208  -0.211395  -0.065349   0.000008   0.949091
     8  C   -1.042091   0.284594  -0.140548  -0.240518   0.000055  -1.402089
     9  C   -8.202483   2.411266  -0.211100   0.067718  -0.000002  -1.339469
    10  C    1.873204   0.499965   0.119140   0.001833   0.000000  -2.439311
    11  C    1.506822   0.042138   0.102065  -0.021043   0.000072  -1.834362
    12  C   -1.334553  -0.188226  -0.129042   0.640744   0.001045   2.259277
    13  C    6.918568  -4.204061   2.355139  -0.049222  -0.000001   1.566213
    14  C   -6.415259   3.310124  -3.448965   0.018845   0.000004   0.147258
    15  C   -0.457013   0.062763  -0.116117   0.017265   0.000000  -0.269428
    16  C    0.140198  -0.014507   0.030011  -0.019341   0.000005   0.023233
    17  C   -0.343335  -0.044772  -0.035504  -0.167340   0.005059   0.950284
    18  C    2.608109  -0.618308   0.389824  -0.035543   0.000020  -0.342539
    19  C   -3.396323   0.399287  -0.646468  -0.002614   0.000003   0.621660
    20  C   -0.059351   0.005812  -0.001713   0.062599  -0.010961  -0.028428
    21  C   -0.102780  -0.038750  -0.004894   0.183475   0.016351   0.864490
    22  C    0.532759  -0.073812  -0.047909   0.003526  -0.000034   0.075554
    23  C   -0.035998  -0.002466   0.000020   0.013979  -0.139292   0.061668
    24  C    0.015542  -0.000036   0.000027   0.007247   0.147799   0.005565
    25  C   -0.000291  -0.000002  -0.000000  -0.000642   0.045311   0.000400
    26  C   -0.005280  -0.000105   0.000016  -0.001113  -0.685824   0.003492
    27  C    0.004812  -0.000039   0.000007  -0.000818   0.500553   0.000447
    28  C    0.000006   0.000000  -0.000000  -0.000001   0.154333  -0.000005
    29  H    0.552296  -0.038589   0.082946   0.040020   0.000000  -0.318422
    30  H    0.046194  -0.012569   0.006378  -0.001579   0.000000  -0.020008
    31  H   -0.019998   0.000365  -0.001703  -0.008245   0.000036  -0.002637
    32  H   -0.370113   0.059510  -0.043649  -0.000171   0.000001   0.073547
    33  H   -0.047194   0.002004  -0.013827  -0.000331   0.000000  -0.024362
    34  H   -0.009282   0.002265  -0.005297   0.000284   0.000000  -0.006503
    35  H    0.008195  -0.000190   0.000956  -0.000125   0.000000  -0.003309
    36  H    0.118019  -0.002905   0.007072  -0.004703  -0.001276  -0.043852
    37  H    0.012057  -0.003310   0.002192  -0.000690  -0.000015  -0.009358
    38  H   -0.039472   0.001771  -0.005254  -0.000188   0.000000   0.006447
    39  H   -0.005890  -0.000176  -0.000578  -0.001880   0.000283   0.007632
    40  H   -0.006179   0.000876  -0.000671   0.000190   0.000004  -0.002090
    41  H   -0.003052  -0.000016  -0.000196   0.003123   0.002883   0.003741
    42  H    0.000169  -0.000056   0.000010   0.000677  -0.002926   0.000272
    43  H   -0.000109   0.000003  -0.000001  -0.000026  -0.019432  -0.000073
    44  H   -0.000036   0.000004  -0.000000   0.000043  -0.000261  -0.000047
    45  H    0.000001  -0.000000   0.000000  -0.000001  -0.040506   0.000001
    46  H   -0.000001  -0.000000   0.000000  -0.000000  -0.038969   0.000000
    47  H    0.000001   0.000000   0.000000   0.000000  -0.065232  -0.000000
               7          8          9         10         11         12
     1  S   -1.380217  -1.042091  -8.202483   1.873204   1.506822  -1.334553
     2  O   -0.609208   0.284594   2.411266   0.499965   0.042138  -0.188226
     3  O   -0.211395  -0.140548  -0.211100   0.119140   0.102065  -0.129042
     4  O   -0.065349  -0.240518   0.067718   0.001833  -0.021043   0.640744
     5  O    0.000008   0.000055  -0.000002   0.000000   0.000072   0.001045
     6  N    0.949091  -1.402089  -1.339469  -2.439311  -1.834362   2.259277
     7  C   21.444772   1.143879   2.196712 -10.609987  -2.913860   1.933561
     8  C    1.143879  24.273036  -1.159415  -3.862458  -8.169783   0.543588
     9  C    2.196712  -1.159415  67.654279  -3.071815  -2.022106   1.481635
    10  C  -10.609987  -3.862458  -3.071815  22.318363  10.521410  -6.417718
    11  C   -2.913860  -8.169783  -2.022106  10.521410  27.839692  -4.960704
    12  C    1.933561   0.543588   1.481635  -6.417718  -4.960704  23.042638
    13  C    2.851470  -3.429625 -14.158670  -3.846863  -1.981142   1.371057
    14  C   -5.164443   3.713935 -17.782332   5.502860   2.231026  -1.460944
    15  C   -5.134377   2.265799  -0.865000   1.170832  -0.369895  -0.187043
    16  C    4.796028  -2.508470   0.868458  -4.127951  -3.984751   0.759990
    17  C   -1.147371  -4.932297   0.000158  -1.250954  -3.103069   2.621516
    18  C    0.446986   0.112453 -10.194315   0.299672   0.764867  -0.045823
    19  C   -0.401294   0.930049  -9.308206   0.030735  -0.335083  -0.034818
    20  C   -0.107237   1.250996   0.679667   0.145347  -0.871744  -2.698031
    21  C   -1.633191  -1.717601   0.439558  -1.219435  -5.971835  -6.972181
    22  C   -0.060830   0.003513  -0.865101  -0.210837  -0.254403  -0.157386
    23  C   -0.098760  -0.915562  -0.382936  -0.105615  -0.542877  -1.541384
    24  C   -0.077302   0.317931   0.245830   0.012887  -0.355866  -1.277928
    25  C   -0.006415  -0.042177  -0.006932  -0.001124  -0.027308  -0.221112
    26  C   -0.005692  -0.071506  -0.040285  -0.008227  -0.117200  -0.299948
    27  C   -0.009091  -0.033536  -0.003236  -0.000496  -0.008232  -0.240926
    28  C    0.000072   0.000015   0.000073   0.000013   0.000125   0.002373
    29  H   -0.226061   0.252902  -0.057373   0.444135   0.289208  -0.440970
    30  H   -0.018656  -0.144506   0.210696   0.415750   0.110807  -0.014638
    31  H   -0.064905  -0.136329  -0.018695   0.255301   0.878588  -0.146988
    32  H   -0.024799  -0.011533   0.221252  -0.015087  -0.040398   0.043769
    33  H   -0.007155  -0.002606  -0.067822  -0.001490  -0.021054   0.034316
    34  H   -0.247627   0.133551  -0.142274   0.139818   0.023725  -0.030914
    35  H    0.151263  -0.067608   0.037236  -0.081942  -0.095064   0.000064
    36  H   -0.066456  -0.045376  -0.022123  -0.067495   0.183026   0.564660
    37  H    0.002457   0.015945  -0.005027   0.007610   0.011690   0.004324
    38  H   -0.000060   0.008142  -0.091574  -0.006204  -0.010158   0.005704
    39  H   -0.000457  -0.072726  -0.045383  -0.026555  -0.014642   0.119080
    40  H    0.002390   0.009049   0.107376  -0.004944  -0.003467   0.009472
    41  H    0.007074  -0.022664   0.003297   0.002384  -0.060329  -0.238279
    42  H   -0.000097   0.009607   0.003503   0.000777  -0.006937  -0.020169
    43  H    0.000198   0.004779   0.001234   0.000340   0.000698   0.009028
    44  H    0.000290   0.000789   0.000538   0.000058   0.000259   0.002810
    45  H   -0.000013   0.000068  -0.000028  -0.000001  -0.000041  -0.000192
    46  H   -0.000001  -0.000141  -0.000008  -0.000001   0.000050  -0.000037
    47  H    0.000002  -0.000005   0.000003   0.000000   0.000006   0.000066
              13         14         15         16         17         18
     1  S    6.918568  -6.415259  -0.457013   0.140198  -0.343335   2.608109
     2  O   -4.204061   3.310124   0.062763  -0.014507  -0.044772  -0.618308
     3  O    2.355139  -3.448965  -0.116117   0.030011  -0.035504   0.389824
     4  O   -0.049222   0.018845   0.017265  -0.019341  -0.167340  -0.035543
     5  O   -0.000001   0.000004   0.000000   0.000005   0.005059   0.000020
     6  N    1.566213   0.147258  -0.269428   0.023233   0.950284  -0.342539
     7  C    2.851470  -5.164443  -5.134377   4.796028  -1.147371   0.446986
     8  C   -3.429625   3.713935   2.265799  -2.508470  -4.932297   0.112453
     9  C  -14.158670 -17.782332  -0.865000   0.868458   0.000158 -10.194315
    10  C   -3.846863   5.502860   1.170832  -4.127951  -1.250954   0.299672
    11  C   -1.981142   2.231026  -0.369895  -3.984751  -3.103069   0.764867
    12  C    1.371057  -1.460944  -0.187043   0.759990   2.621516  -0.045823
    13  C   79.164495 -60.307068  -1.024289   0.618380   0.435946  -5.402909
    14  C  -60.307068  86.184910   1.812300  -1.214043  -0.352287   4.929813
    15  C   -1.024289   1.812300  11.920039  -2.640195  -0.318779  -0.073263
    16  C    0.618380  -1.214043  -2.640195  15.150364  -1.012380  -0.072486
    17  C    0.435946  -0.352287  -0.318779  -1.012380  24.469425   0.148416
    18  C   -5.402909   4.929813  -0.073263  -0.072486   0.148416  17.492226
    19  C    2.173571  -0.682745   0.537482  -0.260101  -0.071584  -2.224968
    20  C   -0.333369   0.081575  -0.028255  -0.301741  -7.830045  -0.227530
    21  C    2.496837  -1.955726  -0.345989  -0.004516   2.865200  -0.710937
    22  C   -0.130022  -3.617658   0.069679  -0.011941   0.134965  -0.696275
    23  C    0.589597  -0.287081  -0.024301   0.029482   2.991705  -0.000723
    24  C   -0.066515  -0.012033  -0.003361  -0.056213  -5.738236  -0.126145
    25  C    0.020012  -0.009207  -0.000109   0.003763  -0.546050  -0.029445
    26  C    0.081871  -0.030987  -0.001219   0.004829  -0.952037  -0.034371
    27  C    0.039894  -0.023154  -0.001010   0.001579  -0.400508  -0.042543
    28  C    0.000333  -0.000070  -0.000005  -0.000047  -0.014646  -0.000110
    29  H   -0.489258   0.235896   0.006696  -0.012283  -0.136050   0.178372
    30  H    0.101308  -0.267197  -0.151955   0.025534   0.012088  -0.004630
    31  H    0.007404  -0.013219  -0.043070  -0.400849   0.090551   0.007374
    32  H    0.679487   0.032020   0.012049   0.001942  -0.002174  -0.531938
    33  H   -0.169787   0.815592   0.019880   0.036294  -0.000619   0.125311
    34  H   -0.052939   0.144162   0.596657  -0.289071  -0.008677   0.001912
    35  H    0.018966  -0.046069  -0.167543   0.593874  -0.041224  -0.002845
    36  H   -0.280344   0.211969   0.141764   0.349472   0.084289   0.053099
    37  H   -0.319636   0.208456  -0.000345  -0.000780  -0.011184   0.560443
    38  H    0.121822  -0.200996   0.004238  -0.001024  -0.006006  -0.023285
    39  H    0.120239  -0.038151  -0.000952   0.016262   0.179367  -0.055917
    40  H   -0.012523  -0.089862   0.000064   0.003289  -0.005463  -0.129868
    41  H    0.093566  -0.059468  -0.018566  -0.056926   0.087071  -0.022281
    42  H   -0.009741   0.001240  -0.000171  -0.001654  -0.133125   0.005530
    43  H   -0.003273   0.001013   0.000220  -0.000083  -0.046520   0.004057
    44  H    0.002049  -0.000145   0.000002  -0.000088  -0.011212  -0.001429
    45  H   -0.000026  -0.000004  -0.000000   0.000001   0.000805  -0.000018
[...]
 .00001331,0.00000207,-0.00006696,-0.00002405,-0.00024080,0.00028333,-0
 .00023547,-0.00069616,0.00204774,-0.00076467,0.00019560,0.00045361,0.0
 0033362,0.14009676,0.00008827,-0.00000278,-0.00003476,-0.00002517,0.00
 000947,0.00002563,-0.00003615,0.00000312,-0.00000695,-0.00006084,0.000
 00085,0.00008444,0.00041542,-0.00198539,0.00079440,-0.00002953,-0.0000
 1173,0.00001117,0.00000856,-0.00000720,-0.00001513,-0.00004624,0.00002
 505,0.00000485,-0.00002738,-0.00001469,-0.00001265,-0.00000600,0.00000
 033,-0.00000336,-0.00000675,-0.00000307,0.00001063,0.00013188,-0.00006
 321,-0.00010437,0.00001574,-0.00000664,-0.00001608,-0.00002287,0.00000
 891,-0.00000027,-0.00000246,-0.00000186,0.00000163,-0.00000439,0.00000
 358,-0.00000040,-0.00023661,-0.00016244,0.00019912,0.00000743,0.000005
 99,0.00004515,0.00000900,0.00000168,0.00002105,-0.00376148,0.00454610,
 0.00010620,-0.00031296,-0.00002343,-0.00069931,-0.00001385,0.00000405,
 -0.00002474,0.00075391,-0.00009592,0.00055711,-0.00491816,-0.00505123,
 -0.00709819,-0.00486553,-0.00170056,-0.00300930,-0.00131533,0.00349441
 ,-0.00274577,-0.11000763,-0.16412416,-0.10648119,-0.00106950,-0.000557
 97,0.00119704,0.00001655,-0.00000249,-0.00001031,-0.00000019,0.0000013
 3,-0.00000148,0.00000363,0.00000832,0.00000219,0.00000323,-0.00000080,
 -0.00000214,-0.00000099,0.00000036,0.00000106,-0.00000101,0.00000067,-
 0.00000151,-0.00000011,-0.00000070,-0.00000296,-0.00000298,0.00002153,
 0.00000163,0.00002268,0.00000493,-0.00003285,0.00000004,-0.00000267,-0
 .00000430,0.00001659,0.00001796,0.00002173,-0.00000524,0.00002635,0.00
 002048,0.00026958,-0.00047478,0.00017682,0.00180188,-0.00204420,0.0015
 7721,-0.00018584,-0.00027964,0.00001020,0.12394183,0.16889212,-0.00001
 477,-0.00002259,0.00002677,0.00000307,0.00000559,-0.00001016,0.0000037
 4,0.00000663,-0.00000604,-0.00001645,-0.00000482,-0.00001031,-0.000404
 37,0.00162012,0.00141572,-0.00000057,0.00001546,-0.00000716,0.00000448
 ,-0.00000048,-0.00000060,0.00001491,-0.00001259,-0.00001471,0.00001672
 ,-0.00000071,-0.00000452,0.00000106,-0.00000121,0.00000164,0.00000110,
 -0.00000250,0.00000013,0.00006676,0.00004885,0.00004999,-0.00000090,0.
 00001481,0.00001834,0.00000732,0.00000920,0.00000007,0.00000151,-0.000
 00036,-0.00000120,-0.00000274,0.00000207,-0.00000002,0.00013809,0.0000
 1682,-0.00019118,-0.00001566,0.00001566,-0.00003808,-0.00000326,-0.000
 00604,-0.00002575,0.00392910,-0.00022313,0.00097518,0.00042389,0.00033
 371,0.00059411,-0.00001130,0.00003233,0.00002016,0.00107801,0.00068608
 ,-0.00113750,0.00729577,0.00967689,0.01075891,-0.01849244,-0.01853792,
 -0.00745035,0.00342404,-0.00242759,-0.00422362,-0.07701482,-0.10627640
 ,-0.13591538,0.00003480,-0.00049130,-0.00142515,0.00000410,-0.00000163
 ,0.00000643,0.00000014,-0.00000038,0.00000070,-0.00000004,0.00000183,0
 .00000018,0.00000473,-0.00000376,0.00000242,0.00000233,-0.00000030,-0.
 00000063,-0.00000060,-0.00000013,-0.00000022,0.00000113,0.00000016,0.0
 0000055,0.00000601,-0.00001293,0.00000569,-0.00004009,-0.00002017,0.00
 005009,0.00000713,-0.00000523,0.00000787,-0.00000493,-0.00000169,-0.00
 002233,0.00000929,-0.00007614,-0.00002688,-0.00018987,0.00017354,-0.00
 006478,-0.00112723,0.00117954,-0.00006776,-0.00095364,-0.00094703,-0.0
 0060535,0.08031003,0.11381233,0.13756505,-0.00001255,0.00003708,0.0000
 0445,0.00000214,-0.00001463,-0.00001008,0.00000503,-0.00001068,0.00000
 429,0.00003073,-0.00001291,-0.00003828,0.01083856,-0.02530824,-0.00716
 341,0.00000964,-0.00001565,-0.00000280,-0.00000618,0.00000840,0.000012
 35,0.00001013,-0.00000862,0.00000720,0.00000662,-0.00000430,-0.0000037
 6,0.00000143,0.00000084,-0.00000199,0.00000145,-0.00000093,-0.00000417
 ,-0.00009244,0.00002582,0.00003235,0.00000220,-0.00000103,0.00000516,0
 .00000018,-0.00000074,-0.00000308,0.00000003,0.00000128,0.00000156,0.0
 0000366,-0.00000149,0.00000030,0.00009185,0.00004139,-0.00002536,0.000
 00556,-0.00000054,-0.00000552,0.00000534,-0.00000632,-0.00000600,0.000
 14983,0.00053572,0.00067317,0.00000566,-0.00011847,0.00009302,-0.00001
 941,0.00000773,0.00001176,0.00046009,0.00020879,-0.00081069,-0.0011227
 2,-0.00034183,-0.00031726,0.00410025,-0.00014559,-0.00137147,-0.001263
 65,-0.00026109,-0.00036710,0.00062412,0.00110315,0.00100059,-0.1306916
 8,0.11781186,0.03032413,-0.00000807,0.00000345,0.00000006,0.00000070,0
 .00000045,0.00000029,-0.00000017,-0.00000142,-0.00000277,0.00000164,0.
 00000149,0.00000017,0.00000065,0.00000256,-0.00000125,0.00000047,0.000
 00017,0.00000021,-0.00000021,0.00000013,0.00000044,0.00000214,-0.00001
 088,-0.00000045,0.00000312,0.00000346,0.00000620,0.00000048,0.00000098
 ,-0.00000088,0.00000668,0.00000327,-0.00000431,0.00001508,-0.00000356,
 -0.00000237,0.00003834,-0.00005087,0.00001561,0.00002827,-0.00002385,0
 .00000415,0.00007791,-0.00003799,0.00008290,-0.00034794,-0.00151257,0.
 00088178,0.13276188,-0.00000823,-0.00009144,0.00001034,0.00000325,0.00
 002801,0.00001313,0.00000104,0.00002127,-0.00000693,-0.00009482,0.0000
 3176,0.00013007,-0.00170323,-0.02114457,-0.00872168,-0.00001647,0.0000
 5583,0.00000273,0.00001687,-0.00002579,-0.00003652,-0.00002878,0.,-0.0
 0001038,0.00000473,0.00000961,-0.00002296,-0.00000365,0.00000050,0.000
 00429,-0.00000493,-0.00000466,0.00000830,0.00028628,-0.00000188,-0.000
 13370,0.00001998,0.00000650,0.00000581,-0.00000002,0.00001849,0.000014
 11,-0.00000180,-0.00000324,-0.00000625,-0.00001015,0.00000840,-0.00000
 014,-0.00029693,-0.00011921,-0.00003605,-0.00003844,0.00001047,-0.0000
 3240,0.00001124,0.00000341,-0.00001292,-0.00018703,0.00005885,0.000735
 33,0.00037863,0.00016778,-0.00002194,-0.00002953,0.00001843,0.00001983
 ,0.00054187,0.00037934,-0.00062850,-0.00031372,0.00017039,0.00026494,0
 .00586868,0.00205208,-0.00298530,-0.00155300,-0.00077451,-0.00006708,-
 0.00031841,-0.00001615,0.00006893,0.11155345,-0.21310727,-0.04020881,0
 .00002273,-0.00001175,0.00000246,-0.00000206,-0.00000081,-0.00000126,0
 .00000137,0.00000787,0.00000632,-0.00000205,-0.00000648,0.,0.00000247,
 -0.00000172,0.00000162,-0.00000159,-0.00000010,-0.00000052,0.00000023,
 -0.00000040,-0.00000208,0.00000092,0.00000776,0.00000676,-0.00000983,-
 0.00001282,0.00002048,0.00000476,-0.00000581,0.00000683,-0.00001429,0.
 00000694,0.00000763,-0.00000465,-0.00005104,-0.00001342,-0.00001098,-0
 .00005871,0.00002104,-0.00004986,-0.00002981,0.00002409,0.00016998,0.0
 0003156,0.00016283,-0.00027742,-0.00064116,0.00131770,-0.11830642,0.23
 329710,0.00006166,-0.00008808,0.00000755,-0.00001807,0.00003017,0.0000
 1792,-0.00002976,0.00002478,-0.00002127,-0.00012094,0.00002418,0.00013
 562,0.00287712,-0.01828413,-0.00509648,-0.00003699,0.00004181,0.000003
 06,0.00002358,-0.00002337,-0.00003354,-0.00004580,0.00000317,-0.000016
 65,-0.00000791,0.00001003,-0.00001471,-0.00000561,-0.00000280,0.000001
 51,-0.00000896,-0.00000581,0.00001426,0.00033527,-0.00000548,-0.000137
 69,0.00000449,-0.00000090,-0.00001181,-0.00000675,0.00001129,0.0000011
 3,-0.00000267,-0.00000254,-0.00000648,-0.00001237,0.00001016,0.0000001
 2,-0.00035012,-0.00012726,-0.00001099,0.00000150,0.00003112,0.00000738
 ,-0.00000384,0.00001107,-0.00000031,-0.00034971,-0.00030387,0.00011270
 ,0.00029479,0.00014983,-0.00010143,-0.00002765,0.00001655,0.00000025,-
 0.00006260,0.00015380,0.00002409,0.00035381,-0.00000988,-0.00006413,0.
 00209795,0.00148545,-0.00076908,-0.00041260,-0.00011495,-0.00017590,-0
 .00061019,0.00033935,0.00067988,0.02817773,-0.03982005,-0.06046120,0.0
 0003207,-0.00001079,0.00000057,-0.00000158,0.00000002,-0.00000130,0.00
 000251,0.00001089,0.00000806,0.00000486,-0.00000637,0.00000015,0.00000
 107,-0.00000339,0.00000234,-0.00000272,-0.00000014,-0.00000134,0.00000
 014,-0.00000156,-0.00000342,0.00000331,0.00001574,0.00000372,0.0000089
 6,-0.00002222,0.00000344,0.00000148,-0.00001346,0.00000412,-0.00000520
 ,0.00000984,0.00000663,0.00001453,-0.00005910,0.00002444,-0.00001970,-
 0.00003816,0.00000454,-0.00002967,0.00001617,0.00003057,0.00007948,-0.
 00003144,0.00007122,0.00041235,0.00109523,-0.00090067,-0.02976048,0.05
 051761,0.06265506,0.00001048,-0.00000551,-0.00001149,-0.00000248,0.000
 00400,0.00000789,-0.00000316,0.00000117,0.00000251,-0.00000923,0.00000
 256,0.00003268,-0.01231079,-0.00100917,-0.01707845,-0.00000412,0.00000
 158,0.00000291,0.00000138,-0.00000084,-0.00000206,0.00000232,0.0000032
 9,-0.00000196,-0.00000383,-0.00000405,-0.00000864,-0.00000073,-0.00000
 107,0.00000088,0.,0.00000027,-0.00000107,0.00004360,-0.00000436,-0.000
 03039,0.00001310,0.00000607,0.00000500,-0.00000696,0.00000522,0.000003
 97,0.00000012,0.00000014,-0.00000030,-0.00000095,-0.00000017,0.0000008
 0,-0.00004443,-0.00004426,-0.00001650,-0.00002212,-0.00000585,-0.00000
 484,-0.00000020,0.00000179,0.00000506,0.00005441,0.00041681,0.00078440
 ,0.00008088,0.00015633,-0.00001555,0.00002317,-0.00000826,0.00000275,0
 .00082583,0.00003796,-0.00066994,-0.00035191,-0.00062732,0.00044282,0.
 00411651,0.00292461,-0.00357971,-0.00116347,-0.00126009,0.00017905,0.0
 0021851,0.00026689,0.00009361,-0.08490805,0.03946248,-0.07452523,0.000
 00227,-0.00000074,-0.00000184,0.00000001,0.00000021,-0.00000029,-0.000
 00019,0.00000083,0.00000124,-0.00000260,-0.00000006,-0.00000052,-0.000
 00041,0.00000085,-0.00000017,-0.00000005,0.00000006,-0.00000013,0.0000
 0023,0.00000025,-0.00000019,0.00000154,-0.00000337,0.00000018,0.000002
 55,0.00000785,-0.00000452,0.00000200,0.00000222,0.00000061,-0.00000722
 ,0.00000464,-0.00000040,-0.00000469,0.00001221,-0.00000646,-0.00003099
 ,0.00002021,-0.00001563,-0.00005342,0.00001084,-0.00001941,0.00002285,
 0.00018005,0.00004636,-0.00225372,0.00068671,0.00073496,-0.00548941,0.
 00800655,-0.01365643,0.09003826,0.00000709,-0.00003662,0.00001620,-0.0
 0000265,0.00001063,-0.00000100,-0.00000549,0.00001046,-0.00000988,-0.0
 0004090,0.00000365,0.00003522,-0.01658377,0.00749630,-0.02609386,-0.00
 000782,0.00001912,-0.00000228,0.00000689,-0.00000939,-0.00001305,-0.00
 001525,0.00000280,-0.00000531,0.00000474,0.00000085,-0.00000733,-0.000
 00233,-0.00000010,0.00000051,-0.00000223,-0.00000153,0.00000268,0.0001
 0101,0.00000138,-0.00003574,-0.00000094,0.00000704,-0.00000635,-0.0000
 0099,0.00000601,0.00000087,-0.00000098,-0.00000085,-0.00000262,-0.0000
 0424,0.00000373,0.00000024,-0.00010155,-0.00004585,-0.00000319,0.00000
 344,0.00001450,0.00000044,0.00000167,0.00000841,-0.00000898,-0.0000219
 9,0.00024761,0.00058133,0.00004805,0.00009568,-0.00005421,-0.00002023,
 0.00001715,0.00000526,0.00050484,-0.00010262,-0.00039970,-0.00039852,-
 0.00078492,-0.00011264,0.00243983,0.00246885,-0.00225957,-0.00042888,-
 0.00107387,0.00008158,0.00045509,0.00068647,0.00138419,0.04307391,-0.0
 9803875,0.09383434,0.00001031,-0.00000428,0.00000267,-0.00000089,-0.00
 000032,-0.00000039,0.00000060,0.00000388,0.00000338,0.00000340,-0.0000
 0255,0.00000046,0.00000106,-0.00000212,0.00000080,-0.00000130,-0.00000
 025,-0.00000025,-0.00000009,-0.00000084,-0.00000087,0.00000678,-0.0000
 0505,-0.00000177,-0.00000050,-0.00001800,0.00001004,0.00000110,-0.0000
 0707,0.00000330,0.00000689,0.00000250,0.00000129,0.00000098,-0.0000365
 6,0.00000308,-0.00003089,0.00002691,-0.00003391,-0.00001086,0.00003015
 ,0.00000171,-0.00004091,0.00013161,-0.00001453,-0.00056423,0.00014273,
 -0.00023995,0.00818750,-0.00846113,0.02171272,-0.03986361,0.09941272,0
 .00010602,-0.00008262,-0.00002916,-0.00002906,0.00003604,0.00003989,-0
 .00004439,0.00002273,-0.00001526,-0.00014330,0.00002890,0.00019242,-0.
 01098166,-0.00434680,-0.01055436,-0.00005231,0.00003259,0.00001318,0.0
 0002857,-0.00002221,-0.00003290,-0.00004960,-0.00000481,-0.00001667,-0
 .00002325,0.00000738,-0.00001386,-0.00000626,-0.00000547,0.,-0.0000146
 9,-0.00000654,0.00001602,0.00042180,0.00001656,-0.00019886,0.00002004,
 0.00000532,0.00000233,-0.00000864,0.00001590,0.00000386,-0.00000340,-0
 .00000362,-0.00000591,-0.00001370,0.00001078,0.00000063,-0.00044942,-0
 .00017028,-0.00002507,-0.00004323,0.00000915,-0.00001096,-0.00001359,0
 .00000707,0.00001421,-0.00049918,-0.00030891,0.00013761,0.00046843,0.0
 0017012,-0.00008363,0.00002686,-0.00000273,-0.00000358,0.00016800,0.00
 008100,0.00007714,0.00033850,0.00059248,0.00007231,0.00372613,0.001371
 22,-0.00120404,-0.00061914,-0.00046272,0.00001386,-0.00058655,-0.00054
 478,0.00030525,-0.07776755,0.08931425,-0.22106484,0.00003777,-0.000011
 17,-0.00000666,-0.00000073,0.00000126,-0.00000194,0.00000327,0.0000137
 6,0.00000880,-0.00000047,-0.00000632,-0.00000097,0.,-0.00000139,0.0000
 0223,-0.00000250,0.00000057,-0.00000225,0.00000042,-0.00000043,-0.0000
 0520,-0.00000010,0.00002132,0.00000841,0.00000647,-0.00001330,0.000000
 28,0.00000760,-0.00000341,0.00000618,-0.00001517,0.00001003,0.00000974
 ,0.00001114,-0.00002702,0.00000299,-0.00005097,-0.00001634,-0.00000307
 ,-0.00003431,-0.00004444,0.00005560,0.00001881,0.00014769,0.00003312,0
 .00112685,-0.00006834,0.00024141,0.00442888,-0.00250767,0.00692675,0.0
 8849717,-0.09209420,0.23899757,0.00007074,-0.00005653,-0.00000761,-0.0
 0001935,0.00002337,0.00001994,-0.00003179,0.00001683,-0.00001587,-0.00
 008917,0.00001517,0.00010104,-0.02188611,-0.01116425,0.01037542,-0.000
 03164,0.00002167,0.00000521,0.00001685,-0.00001333,-0.00002095,-0.0000
 3406,-0.00000242,-0.00001011,-0.00001506,0.00000333,-0.00000765,-0.000
 00424,-0.00000307,-0.00000006,-0.00000679,-0.00000419,0.00000998,0.000
 24228,0.00000830,-0.00009865,0.00000800,0.00000131,-0.00000589,-0.0000
 0733,0.00000593,-0.00000341,-0.00000131,-0.00000129,-0.00000437,-0.000
 00922,0.00000711,0.00000061,-0.00024646,-0.00009320,-0.00001494,-0.000
 01315,0.00001505,0.00000691,-0.00001319,0.00001203,0.00001231,-0.00013
 504,-0.00004869,0.00010008,0.00021848,0.00011148,-0.00004884,0.0000059
 0,0.00000735,-0.00001362,-0.00003436,-0.00013434,-0.00033396,0.0001270
 2,0.00002219,0.00014251,0.00084817,-0.00140474,-0.00323057,-0.00073485
 ,-0.00041300,0.00071054,0.00022446,-0.00024934,-0.00022567,-0.19138216
 ,-0.04227397,0.12825236,0.00002355,-0.00000728,-0.00000207,-0.00000070
 ,0.00000040,-0.00000087,0.00000212,0.00000859,0.00000604,0.00000166,-0
 .00000502,0.,-0.00000079,-0.00000220,0.00000266,-0.00000225,-0.0000000
 7,-0.00000118,0.00000011,-0.00000110,-0.00000276,0.00000645,0.00001088
 ,0.00000726,0.00000639,-0.00001336,-0.00000539,0.00000227,-0.00001017,
 0.00000417,-0.00000589,0.00000542,0.00000577,0.00001435,-0.00002339,0.
 00002332,-0.00008971,-0.00001610,0.00002729,-0.00001920,-0.00002493,0.
 00002721,0.00000957,-0.00001927,-0.00001867,-0.00001553,0.00028483,-0.
 00011233,-0.01023743,-0.00360677,0.01079966,0.01121509,0.00328685,-0.0
 0798955,0.21202332,0.00002143,-0.00002373,-0.00000498,-0.00000573,0.00
 000847,0.00000952,-0.00000873,0.00000569,-0.00000413,-0.00004459,0.000
 00803,0.00005787,-0.02619682,-0.01244060,0.01423655,-0.00001353,0.0000
 1030,0.00000311,0.00000799,-0.00000753,-0.00000956,-0.00001355,-0.0000
 0155,-0.00000430,-0.00000392,0.00000247,-0.00000516,-0.00000178,-0.000
 00098,-0.00000048,-0.00000419,-0.00000258,0.00000469,0.00012857,0.0000
 0812,-0.00005643,0.00000710,0.00000326,0.00000320,0.00000049,0.0000080
 0,0.00000249,-0.00000166,-0.00000136,-0.00000192,-0.00000359,0.0000043
 5,0.00000057,-0.00012676,-0.00005017,-0.00001796,-0.00001988,0.0000062
 4,-0.00001300,-0.00000195,0.00000070,0.00000202,-0.00000042,-0.0000033
 2,0.00015548,0.00015217,0.00006681,0.00000369,0.00000585,0.00000197,0.
 00000762,0.00005357,-0.00017138,-0.00041036,-0.00008960,0.00022751,0.0
 0022141,-0.00069851,-0.00184691,-0.00335630,-0.00114013,-0.00016976,0.
 00067232,-0.00005479,0.00002254,-0.00084882,-0.03687082,-0.05954554,0.
 03605634,0.00001101,-0.00000350,-0.00000140,-0.00000030,0.00000035,-0.
 00000065,0.00000114,0.00000462,0.00000296,-0.00000078,-0.00000182,-0.0
 0000047,0.00000023,0.00000002,0.00000037,-0.00000097,0.00000025,-0.000
 00048,-0.00000016,-0.00000028,-0.00000169,0.00000538,0.00000319,0.0000
 0601,-0.00000218,-0.00000758,0.00000617,0.00000336,-0.00000078,0.00000
 372,-0.00000735,0.00000125,0.00000380,-0.00000030,-0.00001690,-0.00000
 584,-0.00006700,-0.00006596,0.00005637,-0.00005300,0.00000180,0.000007
 20,0.00001097,0.00000138,-0.00002822,0.00047067,0.00003889,0.00034766,
 0.01821510,0.00817811,-0.01674523,-0.00938593,-0.00221847,0.00883942,0
 .05572393,0.06796635,-0.00006378,0.00001697,0.00001654,0.00001879,-0.0
 0001083,-0.00001650,0.00002606,-0.00000602,0.00000756,0.00003956,-0.00
 000038,-0.00003787,-0.01948736,-0.00820484,0.01284605,0.00002254,0.000
 00019,-0.00000598,-0.00000743,0.00000366,0.00000500,0.00001863,0.00000
 263,0.00000450,0.00001290,-0.00000359,-0.00000281,0.00000182,0.0000021
 3,0.00000165,0.00000449,0.00000226,-0.00000583,-0.00009709,-0.00001035
 ,0.00004367,0.00000125,0.00000183,0.00000340,0.00000160,0.00000036,0.0
 0000416,0.00000039,0.00000098,0.00000056,0.00000440,-0.00000258,-0.000
 00016,0.00009713,0.00002691,-0.00000779,-0.00000117,-0.00001227,-0.000
 00732,0.00001045,-0.00000444,-0.00000384,0.00013421,0.00016043,0.00007
 186,-0.00004643,0.00001804,0.00003782,-0.00000749,0.00000612,0.0000058
 2,0.00009507,-0.00007733,-0.00033516,-0.00006411,0.00007552,0.00043611
 ,-0.00207993,-0.00252487,-0.00141847,-0.00068172,-0.00035546,0.0006059
 6,0.00017678,-0.00051051,-0.00090628,0.13906208,0.04422266,-0.17034811
 ,-0.00001228,0.00000178,0.00000337,-0.00000034,-0.00000086,0.00000043,
 -0.00000119,-0.00000437,-0.00000203,-0.00000204,0.00000155,0.00000059,
 0.00000028,0.00000084,-0.00000065,0.00000082,-0.00000025,0.00000111,-0
 .00000059,0.00000005,0.00000181,-0.00000217,-0.00000582,0.00000122,-0.
 00000589,0.00001059,0.00000458,-0.00000221,0.00000271,-0.00000138,-0.0
 0000464,-0.00000187,-0.00000056,0.00000065,0.00000208,-0.00000614,-0.0
 0006459,-0.00001072,0.00002619,-0.00002409,-0.00002423,0.00000015,0.00
 002414,0.00000283,-0.00001030,0.00024812,0.00059907,0.00040895,0.00231
 245,0.00208333,-0.00291867,0.01880727,0.00371925,-0.01390259,-0.138465
 32,-0.03919320,0.17539935\\-0.00000311,-0.00000456,0.00000614,0.000002
 28,0.00000150,-0.00000066,0.00000033,0.00000095,-0.00000148,0.00000180
 ,0.00000128,0.00000029,0.00000360,-0.00000557,-0.00000069,0.00000655,0
 .00000584,0.00000590,-0.00000494,0.00000015,-0.00000442,0.00000044,0.0
 0000145,0.00000181,0.00000045,0.00000162,-0.00000034,0.00000070,0.0000
 0090,0.00000722,0.00000175,-0.00000041,0.00000397,0.00000093,-0.000002
 57,0.00000147,-0.00000102,-0.00000053,0.00000034,-0.00000052,-0.000001
 04,-0.00000150,0.00000152,-0.00000310,0.00000222,-0.00000310,0.0000005
 2,0.00000134,0.00000334,0.00000235,0.00000384,0.00000055,0.00000203,-0
 .00000144,-0.00000115,0.00000085,-0.00000091,-0.00000275,-0.00000147,-
 0.00000303,0.00000221,-0.00000072,-0.00000343,0.00000158,-0.00000207,0
 .00000079,-0.00000253,-0.00000004,0.00000250,0.00000226,0.00000217,-0.
 00000002,-0.00000259,0.00000199,-0.00000551,0.00000129,0.00000068,-0.0
 0000175,-0.00000089,-0.00000037,0.00000082,-0.00000223,0.00000150,-0.0
 0000554,-0.00000114,0.00000054,-0.00000054,-0.00000028,0.00000025,0.00
 000227,0.00000047,0.00000067,0.00000234,0.00000111,0.00000097,-0.00000
 035,-0.00000142,-0.00000038,0.00000161,-0.00000155,-0.00000006,0.00000
 330,-0.00000144,-0.00000103,0.00000334,-0.00000214,-0.00000079,-0.0000
 0051,0.00000073,-0.00000038,-0.00000105,-0.00000084,-0.00000147,0.0000
 0013,0.00000121,0.00000078,0.00000071,-0.00000074,0.00000012,-0.000001
 29,-0.00000167,-0.00000109,-0.00000110,0.00000080,0.00000096,-0.000001
 55,-0.00000099,-0.00000093,-0.00000177,0.00000095,-0.00000016,-0.00000
 287,-0.00000016,-0.00000083,-0.00000274,0.00000135,0.00000002,-0.00000
 372,-0.00000099,-0.00000055,-0.00000413\\\@


 THE MOST BEAUTIFUL EXPERIENCE WE CAN HAVE IS THE MYSTERIOUS.
 IT IS THE FUNDAMENTAL EMOTION WHICH STANDS AT AT THE CRADLE 
 OF TRUE ART AND TRUE SCIENCE.

                                    -- ALBERT EINSTEIN
 Job cpu time:       1 days 16 hours 28 minutes 44.5 seconds.
 Elapsed time:       0 days  2 hours 32 minutes 24.0 seconds.
 File lengths (MBytes):  RWF=   2329 Int=      0 D2E=      0 Chk=     47 Scr=      1
 Normal termination of Gaussian 16 at Thu Oct  9 18:11:38 2025.
