 Entering Gaussian System, Link 0=g16
 Input=NTHC0138.gjf
 Output=NTHC0138.log
 Initial command:
 /usr/local/g16/l1.exe "/dados_01/scratch/Gau-2162813.inp" -scrdir="/dados_01/scratch/"
 Entering Link 1 = /usr/local/g16/l1.exe PID=   2162816.
  
 Copyright (c) 1988-2017, Gaussian, Inc.  All Rights Reserved.
  
 This is part of the Gaussian(R) 16 program.  It is based on
 the Gaussian(R) 09 system (copyright 2009, Gaussian, Inc.),
 the Gaussian(R) 03 system (copyright 2003, Gaussian, Inc.),
 the Gaussian(R) 98 system (copyright 1998, Gaussian, Inc.),
 the Gaussian(R) 94 system (copyright 1995, Gaussian, Inc.),
 the Gaussian 92(TM) system (copyright 1992, Gaussian, Inc.),
 the Gaussian 90(TM) system (copyright 1990, Gaussian, Inc.),
 the Gaussian 88(TM) system (copyright 1988, Gaussian, Inc.),
 the Gaussian 86(TM) system (copyright 1986, Carnegie Mellon
 University), and the Gaussian 82(TM) system (copyright 1983,
 Carnegie Mellon University). Gaussian is a federally registered
 trademark of Gaussian, Inc.
  
 This software contains proprietary and confidential information,
 including trade secrets, belonging to Gaussian, Inc.
  
 This software is provided under written license and may be
 used, copied, transmitted, or stored only in accord with that
 written license.
  
 The following legend is applicable only to US Government
 contracts under FAR:
  
                    RESTRICTED RIGHTS LEGEND
  
 Use, reproduction and disclosure by the US Government is
 subject to restrictions as set forth in subparagraphs (a)
 and (c) of the Commercial Computer Software - Restricted
 Rights clause in FAR 52.227-19.
  
 Gaussian, Inc.
 340 Quinnipiac St., Bldg. 40, Wallingford CT 06492
  
  
 ---------------------------------------------------------------
 Warning -- This program may not be used in any manner that
 competes with the business of Gaussian, Inc. or will provide
 assistance to any competitor of Gaussian, Inc.  The licensee
 of this program is prohibited from giving any competitor of
 Gaussian, Inc. access to this program.  By using this program,
 the user acknowledges that Gaussian, Inc. is engaged in the
 business of creating and licensing software in the field of
 computational chemistry and represents and warrants to the
 licensee that it is not a competitor of Gaussian, Inc. and that
 it will not use this program in any manner prohibited above.
 ---------------------------------------------------------------
  

 Cite this work as:
 Gaussian 16, Revision B.01,
 M. J. Frisch, G. W. Trucks, H. B. Schlegel, G. E. Scuseria, 
 M. A. Robb, J. R. Cheeseman, G. Scalmani, V. Barone, 
 G. A. Petersson, H. Nakatsuji, X. Li, M. Caricato, A. V. Marenich, 
 J. Bloino, B. G. Janesko, R. Gomperts, B. Mennucci, H. P. Hratchian, 
 J. V. Ortiz, A. F. Izmaylov, J. L. Sonnenberg, D. Williams-Young, 
 F. Ding, F. Lipparini, F. Egidi, J. Goings, B. Peng, A. Petrone, 
 T. Henderson, D. Ranasinghe, V. G. Zakrzewski, J. Gao, N. Rega, 
 G. Zheng, W. Liang, M. Hada, M. Ehara, K. Toyota, R. Fukuda, 
 J. Hasegawa, M. Ishida, T. Nakajima, Y. Honda, O. Kitao, H. Nakai, 
 T. Vreven, K. Throssell, J. A. Montgomery, Jr., J. E. Peralta, 
 F. Ogliaro, M. J. Bearpark, J. J. Heyd, E. N. Brothers, K. N. Kudin, 
 V. N. Staroverov, T. A. Keith, R. Kobayashi, J. Normand, 
 K. Raghavachari, A. P. Rendell, J. C. Burant, S. S. Iyengar, 
 J. Tomasi, M. Cossi, J. M. Millam, M. Klene, C. Adamo, R. Cammi, 
 J. W. Ochterski, R. L. Martin, K. Morokuma, O. Farkas, 
 J. B. Foresman, and D. J. Fox, Gaussian, Inc., Wallingford CT, 2016.
 
 ******************************************
 Gaussian 16:  ES64L-G16RevB.01 20-Dec-2017
                21-Sep-2025 
 ******************************************
 %nprocs=16
 Will use up to   16 processors via shared memory.
 %mem=40GB
 %chk=NTHC0138.chk
 ----------------------------------------------------------------------
 # opt freq=noraman M08HX/6-311++G** scf=xqc Empiricaldispersion=pfd In
 t(Grid=ultraFine)
 ----------------------------------------------------------------------
 1/18=20,19=15,26=4,38=1/1,3;
 2/9=110,12=2,17=6,18=5,40=1/2;
 3/5=4,6=6,7=1111,11=2,25=1,30=1,71=1,74=-74,75=-5,124=11/1,2,3;
 4//1;
 5/5=2,8=3,13=1,38=5/2,8;
 6/7=2,8=2,9=2,10=2,28=1/1;
 7//1,2,3,16;
 1/18=20,19=15,26=4/3(2);
 2/9=110/2;
 99//99;
 2/9=110/2;
 3/5=4,6=6,7=1111,11=2,25=1,30=1,71=1,74=-74,75=-5,124=11/1,2,3;
 4/5=5,16=3,69=1/1;
 5/5=2,8=3,13=1,38=5/2,8;
 7//1,2,3,16;
 1/18=20,19=15,26=4/3(-5);
 2/9=110/2;
 6/7=2,8=2,9=2,10=2,19=2,28=1/1;
 99/9=1/99;
 --------
 NTHC0138
 --------
 Symbolic Z-matrix:
 Charge =  0 Multiplicity = 1
 O                    -2.4162   -0.0001    0.0002 
 O                    -2.4122   -2.2536    0. 
 O                    -2.4123    2.2534   -0.0004 
 C                     0.3778   -0.0001    0.0003 
 C                     1.7939    0.        0.0001 
 C                    -0.3132   -1.2052    0.0002 
 C                    -0.3132    1.2053    0.0002 
 C                     2.4785   -1.2247   -0.0001 
 C                     2.4784    1.2248    0.0002 
 C                     0.3799   -2.4212   -0.0002 
 C                     0.3798    2.4212   -0.0001 
 C                    -1.7839   -1.2011    0.0003 
 C                    -1.7839    1.2011   -0.0003 
 C                     1.7734   -2.4275   -0.0004 
 C                     1.7733    2.4275    0. 
 H                     3.5659   -1.2523   -0.0003 
 H                     3.5658    1.2524    0.0002 
 H                    -0.1468   -3.3716   -0.0004 
 H                    -0.147     3.3717   -0.0004 
 H                     2.3115   -3.3711   -0.0007 
 H                     2.3114    3.3711   -0.0001 
 

 GradGradGradGradGradGradGradGradGradGradGradGradGradGradGradGradGradGrad
 Berny optimization.
 Initialization pass.
                           ----------------------------
                           !    Initial Parameters    !
                           ! (Angstroms and Degrees)  !
 --------------------------                            --------------------------
 ! Name  Definition              Value          Derivative Info.                !
 --------------------------------------------------------------------------------
 ! R1    R(1,12)                 1.3573         estimate D2E/DX2                !
 ! R2    R(1,13)                 1.3575         estimate D2E/DX2                !
 ! R3    R(2,12)                 1.2258         estimate D2E/DX2                !
 ! R4    R(3,13)                 1.2257         estimate D2E/DX2                !
 ! R5    R(4,5)                  1.4161         estimate D2E/DX2                !
 ! R6    R(4,6)                  1.3892         estimate D2E/DX2                !
 ! R7    R(4,7)                  1.3894         estimate D2E/DX2                !
 ! R8    R(5,8)                  1.4031         estimate D2E/DX2                !
 ! R9    R(5,9)                  1.4031         estimate D2E/DX2                !
 ! R10   R(6,10)                 1.3997         estimate D2E/DX2                !
 ! R11   R(6,12)                 1.4707         estimate D2E/DX2                !
 ! R12   R(7,11)                 1.3995         estimate D2E/DX2                !
 ! R13   R(7,13)                 1.4707         estimate D2E/DX2                !
 ! R14   R(8,14)                 1.3942         estimate D2E/DX2                !
 ! R15   R(8,16)                 1.0878         estimate D2E/DX2                !
 ! R16   R(9,15)                 1.3941         estimate D2E/DX2                !
 ! R17   R(9,17)                 1.0878         estimate D2E/DX2                !
 ! R18   R(10,14)                1.3935         estimate D2E/DX2                !
 ! R19   R(10,18)                1.0866         estimate D2E/DX2                !
 ! R20   R(11,15)                1.3935         estimate D2E/DX2                !
 ! R21   R(11,19)                1.0867         estimate D2E/DX2                !
 ! R22   R(14,20)                1.0862         estimate D2E/DX2                !
 ! R23   R(15,21)                1.0862         estimate D2E/DX2                !
 ! A1    A(12,1,13)            124.4723         estimate D2E/DX2                !
 ! A2    A(5,4,6)              119.8338         estimate D2E/DX2                !
 ! A3    A(5,4,7)              119.8196         estimate D2E/DX2                !
 ! A4    A(6,4,7)              120.3465         estimate D2E/DX2                !
 ! A5    A(4,5,8)              119.2009         estimate D2E/DX2                !
 ! A6    A(4,5,9)              119.2034         estimate D2E/DX2                !
 ! A7    A(8,5,9)              121.5957         estimate D2E/DX2                !
 ! A8    A(4,6,10)             120.4878         estimate D2E/DX2                !
 ! A9    A(4,6,12)             119.6701         estimate D2E/DX2                !
 ! A10   A(10,6,12)            119.8422         estimate D2E/DX2                !
 ! A11   A(4,7,11)             120.4955         estimate D2E/DX2                !
 ! A12   A(4,7,13)             119.66           estimate D2E/DX2                !
 ! A13   A(11,7,13)            119.8445         estimate D2E/DX2                !
 ! A14   A(5,8,14)             120.4156         estimate D2E/DX2                !
 ! A15   A(5,8,16)             120.6589         estimate D2E/DX2                !
 ! A16   A(14,8,16)            118.9255         estimate D2E/DX2                !
 ! A17   A(5,9,15)             120.4191         estimate D2E/DX2                !
 ! A18   A(5,9,17)             120.6533         estimate D2E/DX2                !
 ! A19   A(15,9,17)            118.9276         estimate D2E/DX2                !
 ! A20   A(6,10,14)            119.9415         estimate D2E/DX2                !
 ! A21   A(6,10,18)            121.3229         estimate D2E/DX2                !
 ! A22   A(14,10,18)           118.7356         estimate D2E/DX2                !
 ! A23   A(7,11,15)            119.9399         estimate D2E/DX2                !
 ! A24   A(7,11,19)            121.3224         estimate D2E/DX2                !
 ! A25   A(15,11,19)           118.7377         estimate D2E/DX2                !
 ! A26   A(1,12,2)             121.3987         estimate D2E/DX2                !
 ! A27   A(1,12,6)             117.9255         estimate D2E/DX2                !
 ! A28   A(2,12,6)             120.6758         estimate D2E/DX2                !
 ! A29   A(1,13,3)             121.3938         estimate D2E/DX2                !
 ! A30   A(1,13,7)             117.9255         estimate D2E/DX2                !
 ! A31   A(3,13,7)             120.6807         estimate D2E/DX2                !
 ! A32   A(8,14,10)            120.1205         estimate D2E/DX2                !
 ! A33   A(8,14,20)            119.926          estimate D2E/DX2                !
 ! A34   A(10,14,20)           119.9535         estimate D2E/DX2                !
 ! A35   A(9,15,11)            120.1225         estimate D2E/DX2                !
 ! A36   A(9,15,21)            119.9239         estimate D2E/DX2                !
 ! A37   A(11,15,21)           119.9535         estimate D2E/DX2                !
 ! D1    D(13,1,12,2)         -179.9583         estimate D2E/DX2                !
 ! D2    D(13,1,12,6)            0.0161         estimate D2E/DX2                !
 ! D3    D(12,1,13,3)          179.998          estimate D2E/DX2                !
 ! D4    D(12,1,13,7)           -0.0426         estimate D2E/DX2                !
 ! D5    D(6,4,5,8)             -0.0046         estimate D2E/DX2                !
 ! D6    D(6,4,5,9)            179.9998         estimate D2E/DX2                !
 ! D7    D(7,4,5,8)           -179.9858         estimate D2E/DX2                !
 ! D8    D(7,4,5,9)              0.0186         estimate D2E/DX2                !
 ! D9    D(5,4,6,10)            -0.0049         estimate D2E/DX2                !
 ! D10   D(5,4,6,12)          -179.9951         estimate D2E/DX2                !
 ! D11   D(7,4,6,10)           179.9762         estimate D2E/DX2                !
 ! D12   D(7,4,6,12)            -0.014          estimate D2E/DX2                !
 ! D13   D(5,4,7,11)             0.0001         estimate D2E/DX2                !
 ! D14   D(5,4,7,13)           179.9682         estimate D2E/DX2                !
 ! D15   D(6,4,7,11)          -179.981          estimate D2E/DX2                !
 ! D16   D(6,4,7,13)            -0.0129         estimate D2E/DX2                !
 ! D17   D(4,5,8,14)             0.0142         estimate D2E/DX2                !
 ! D18   D(4,5,8,16)           179.9973         estimate D2E/DX2                !
 ! D19   D(9,5,8,14)          -179.9903         estimate D2E/DX2                !
 ! D20   D(9,5,8,16)            -0.0072         estimate D2E/DX2                !
 ! D21   D(4,5,9,15)            -0.0235         estimate D2E/DX2                !
 ! D22   D(4,5,9,17)           179.9909         estimate D2E/DX2                !
 ! D23   D(8,5,9,15)           179.981          estimate D2E/DX2                !
 ! D24   D(8,5,9,17)            -0.0047         estimate D2E/DX2                !
 ! D25   D(4,6,10,14)            0.0048         estimate D2E/DX2                !
 ! D26   D(4,6,10,18)         -179.9928         estimate D2E/DX2                !
 ! D27   D(12,6,10,14)         179.995          estimate D2E/DX2                !
 ! D28   D(12,6,10,18)          -0.0025         estimate D2E/DX2                !
 ! D29   D(4,6,12,1)             0.0138         estimate D2E/DX2                !
 ! D30   D(4,6,12,2)           179.9884         estimate D2E/DX2                !
 ! D31   D(10,6,12,1)         -179.9765         estimate D2E/DX2                !
 ! D32   D(10,6,12,2)           -0.002          estimate D2E/DX2                !
 ! D33   D(4,7,11,15)           -0.0143         estimate D2E/DX2                !
 ! D34   D(4,7,11,19)          179.9865         estimate D2E/DX2                !
 ! D35   D(13,7,11,15)        -179.9823         estimate D2E/DX2                !
 ! D36   D(13,7,11,19)           0.0185         estimate D2E/DX2                !
 ! D37   D(4,7,13,1)             0.0406         estimate D2E/DX2                !
 ! D38   D(4,7,13,3)          -179.9998         estimate D2E/DX2                !
 ! D39   D(11,7,13,1)         -179.9911         estimate D2E/DX2                !
 ! D40   D(11,7,13,3)           -0.0315         estimate D2E/DX2                !
 ! D41   D(5,8,14,10)           -0.0144         estimate D2E/DX2                !
 ! D42   D(5,8,14,20)          179.9911         estimate D2E/DX2                !
 ! D43   D(16,8,14,10)        -179.9978         estimate D2E/DX2                !
 ! D44   D(16,8,14,20)           0.0077         estimate D2E/DX2                !
 ! D45   D(5,9,15,11)            0.0096         estimate D2E/DX2                !
 ! D46   D(5,9,15,21)         -179.9891         estimate D2E/DX2                !
 ! D47   D(17,9,15,11)         179.9955         estimate D2E/DX2                !
 ! D48   D(17,9,15,21)          -0.0032         estimate D2E/DX2                !
 ! D49   D(6,10,14,8)            0.0049         estimate D2E/DX2                !
 ! D50   D(6,10,14,20)         179.9994         estimate D2E/DX2                !
 ! D51   D(18,10,14,8)        -179.9975         estimate D2E/DX2                !
 ! D52   D(18,10,14,20)         -0.003          estimate D2E/DX2                !
 ! D53   D(7,11,15,9)            0.0094         estimate D2E/DX2                !
 ! D54   D(7,11,15,21)        -179.9919         estimate D2E/DX2                !
 ! D55   D(19,11,15,9)        -179.9913         estimate D2E/DX2                !
 ! D56   D(19,11,15,21)          0.0073         estimate D2E/DX2                !
 --------------------------------------------------------------------------------
 Trust Radius=3.00D-01 FncErr=1.00D-07 GrdErr=1.00D-06 EigMax=2.50D+02 EigMin=1.00D-04
 Number of steps in this run=    126 maximum allowed number of steps=    126.
 GradGradGradGradGradGradGradGradGradGradGradGradGradGradGradGradGradGrad

                          Input orientation:                          
 ---------------------------------------------------------------------
 Center     Atomic      Atomic             Coordinates (Angstroms)
 Number     Number       Type             X           Y           Z
 ---------------------------------------------------------------------
      1          8           0       -2.416200   -0.000100    0.000200
      2          8           0       -2.412200   -2.253600    0.000000
      3          8           0       -2.412300    2.253400   -0.000400
      4          6           0        0.377800   -0.000100    0.000300
      5          6           0        1.793900    0.000000    0.000100
      6          6           0       -0.313200   -1.205200    0.000200
      7          6           0       -0.313200    1.205300    0.000200
      8          6           0        2.478500   -1.224700   -0.000100
      9          6           0        2.478400    1.224800    0.000200
     10          6           0        0.379900   -2.421200   -0.000200
     11          6           0        0.379800    2.421200   -0.000100
     12          6           0       -1.783900   -1.201100    0.000300
     13          6           0       -1.783900    1.201100   -0.000300
     14          6           0        1.773400   -2.427500   -0.000400
     15          6           0        1.773300    2.427500    0.000000
     16          1           0        3.565900   -1.252300   -0.000300
     17          1           0        3.565800    1.252400    0.000200
     18          1           0       -0.146800   -3.371600   -0.000400
     19          1           0       -0.147000    3.371700   -0.000400
     20          1           0        2.311500   -3.371100   -0.000700
     21          1           0        2.311400    3.371100   -0.000100
 ---------------------------------------------------------------------
                    Distance matrix (angstroms):
                    1          2          3          4          5
     1  O    0.000000
     2  O    2.253504   0.000000
     3  O    2.253503   4.507000   0.000000
     4  C    2.794000   3.586414   3.586491   0.000000
     5  C    4.210100   4.771791   4.771785   1.416100   0.000000
     6  C    2.423814   2.346262   4.045755   1.389153   2.427422
     7  C    2.423963   4.045960   2.346217   1.389414   2.427472
     8  C    5.045566   4.997758   6.001425   2.431581   1.403056
     9  C    5.045542   6.001436   4.997696   2.431646   1.403095
    10  C    3.698635   2.797126   5.445022   2.421101   2.803855
    11  C    3.698690   5.445091   2.797138   2.421301   2.803906
    12  C    1.357278   1.225772   3.511190   2.472923   3.774029
    13  C    1.357455   3.511369   1.225652   2.473020   3.774029
    14  C    4.842006   4.189211   6.279404   2.799995   2.427587
    15  C    4.842019   6.279419   4.189219   2.800118   2.427587
    16  H    6.111753   6.061376   6.930282   3.425199   2.169848
    17  H    6.111717   6.930261   6.061327   3.425215   2.169824
    18  H    4.064134   2.526254   6.064084   3.412069   3.890245
    19  H    4.064272   6.064250   2.526297   3.412397   3.890431
    20  H    5.806444   4.854086   7.345018   3.886237   3.410605
    21  H    5.806478   7.345042   4.854132   3.886361   3.410590
                    6          7          8          9         10
     6  C    0.000000
     7  C    2.410500   0.000000
     8  C    2.791768   3.701147   0.000000
     9  C    3.701072   2.791668   2.449500   0.000000
    10  C    1.399658   3.692139   2.415726   4.206782   0.000000
    11  C    3.692022   1.399522   4.206796   2.415677   4.842400
    12  C    1.470706   2.820234   4.262465   4.904303   2.484084
    13  C    2.820149   1.470706   4.904341   4.262366   4.219371
    14  C    2.418247   4.189408   1.394236   3.719721   1.393514
    15  C    4.189271   2.418110   3.719660   1.394150   5.044944
    16  H    3.879386   4.592082   1.087750   2.705306   3.393659
    17  H    4.591997   3.879286   2.705226   1.087750   4.862643
    18  H    2.172781   4.579924   3.391368   5.293257   1.086588
    19  H    4.579917   2.172766   5.293406   3.391446   5.816813
    20  H    3.402965   5.275650   2.152887   4.598930   2.152531
    21  H    5.275514   3.402825   4.598837   2.152787   6.105852
                   11         12         13         14         15
    11  C    0.000000
    12  C    4.219319   0.000000
    13  C    2.483997   2.402200   0.000000
    14  C    5.044999   3.762770   5.081449   0.000000
    15  C    1.393514   5.081379   3.762676   4.855000   0.000000
    16  H    4.862698   5.350045   5.885536   2.143397   4.093207
    17  H    3.393625   5.885487   5.349946   4.093209   2.143342
    18  H    5.816686   2.718670   4.856921   2.139741   6.108711
    19  H    1.086724   4.856948   2.718629   6.108900   2.139875
    20  H    6.105916   4.634782   6.138185   1.086247   5.823523
    21  H    2.152531   6.138118   4.634693   5.823505   1.086247
                   16         17         18         19         20
    16  H    0.000000
    17  H    2.504700   0.000000
    18  H    4.274994   5.929989   0.000000
    19  H    5.930177   4.275081   6.743300   0.000000
    20  H    2.462282   4.790618   2.458300   7.177017   0.000000
    21  H    4.790574   2.462196   7.176820   2.458400   6.742200
                   21
    21  H    0.000000
 Stoichiometry    C12H6O3
 Framework group  C1[X(C12H6O3)]
 Deg. of freedom    57
 Full point group                 C1      NOp   1
 Largest Abelian subgroup         C1      NOp   1
 Largest concise Abelian subgroup C1      NOp   1
                         Standard orientation:                         
 ---------------------------------------------------------------------
 Center     Atomic      Atomic             Coordinates (Angstroms)
 Number     Number       Type             X           Y           Z
 ---------------------------------------------------------------------
      1          8           0       -2.386592    0.000029   -0.000221
      2          8           0       -2.382644    2.253529   -0.000021
      3          8           0       -2.382640   -2.253471    0.000379
      4          6           0        0.407408    0.000094   -0.000321
      5          6           0        1.823508    0.000026   -0.000121
      6          6           0       -0.283620    1.205178   -0.000221
      7          6           0       -0.283564   -1.205322   -0.000221
      8          6           0        2.508080    1.224742    0.000079
      9          6           0        2.508036   -1.224758   -0.000221
     10          6           0        0.409452    2.421194    0.000179
     11          6           0        0.409464   -2.421206    0.000079
     12          6           0       -1.754320    1.201044   -0.000321
     13          6           0       -1.754264   -1.201156    0.000279
     14          6           0        1.802952    2.427526    0.000379
     15          6           0        1.802964   -2.427474   -0.000021
     16          1           0        3.595479    1.252367    0.000279
     17          1           0        3.595437   -1.252333   -0.000221
     18          1           0       -0.117270    3.371582    0.000379
     19          1           0       -0.117314   -3.371718    0.000379
     20          1           0        2.341030    3.371138    0.000679
     21          1           0        2.341086   -3.371062    0.000079
 ---------------------------------------------------------------------
 Rotational constants (GHZ):           0.8436476           0.7658818           0.4014430
 Standard basis: 6-311++G(d,p) (5D, 7F)
 There are   387 symmetry adapted cartesian basis functions of A   symmetry.
 There are   372 symmetry adapted basis functions of A   symmetry.
   372 basis functions,   594 primitive gaussians,   387 cartesian basis functions
    51 alpha electrons       51 beta electrons
       nuclear repulsion energy       916.2308745864 Hartrees.
 NAtoms=   21 NActive=   21 NUniq=   21 SFac= 1.00D+00 NAtFMM=   60 NAOKFM=F Big=F
 Integral buffers will be    131072 words long.
 Raffenetti 2 integral format.
 Two-electron integral symmetry is turned on.
 R6APFD:  NTU= -4 IXU= 1 FactS= 1.050
 Nuclear repulsion after empirical dispersion term =      916.2142343844 Hartrees.
 One-electron integrals computed using PRISM.
 NBasis=   372 RedAO= T EigKep=  4.97D-06  NBF=   372
 NBsUse=   366 1.00D-06 EigRej=  8.77D-07 NBFU=   366
 ExpMin= 3.60D-02 ExpMax= 8.59D+03 ExpMxC= 1.30D+03 IAcc=3 IRadAn=         5 AccDes= 0.00D+00
 Harris functional with IExCor= 1009 and IRadAn=       5 diagonalized for initial guess.
 HarFok:  IExCor= 1009 AccDes= 0.00D+00 IRadAn=         5 IDoV= 1 UseB2=F ITyADJ=14
 ICtDFT=  3500011 ScaDFX=  1.000000  1.000000  1.000000  1.000000
 FoFCou: FMM=F IPFlag=           0 FMFlag=      100000 FMFlg1=           0
         NFxFlg=           0 DoJE=T BraDBF=F KetDBF=T FulRan=T
         wScrn=  0.000000 ICntrl=       500 IOpCl=  0 I1Cent=   200000004 NGrid=           0
         NMat0=    1 NMatS0=      1 NMatT0=    0 NMatD0=    1 NMtDS0=    0 NMtDT0=    0
 Petite list used in FoFCou.
 Requested convergence on RMS density matrix=1.00D-08 within  32 cycles.
 Requested convergence on MAX density matrix=1.00D-06.
 Requested convergence on             energy=1.00D-06.
 No special actions if energy rises.
 SCF Done:  E(RM08HX) =  -686.560129443     A.U. after   15 cycles
            NFock= 15  Conv=0.44D-08     -V/T= 2.0042
 QCSCF skips out because SCF is already converged.

 **********************************************************************

            Population analysis using the SCF Density.

 **********************************************************************

 Orbital symmetries:
       Occupied  (A) (A) (A) (A) (A) (A) (A) (A) (A) (A) (A) (A)
                 (A) (A) (A) (A) (A) (A) (A) (A) (A) (A) (A) (A)
                 (A) (A) (A) (A) (A) (A) (A) (A) (A) (A) (A) (A)
                 (A) (A) (A) (A) (A) (A) (A) (A) (A) (A) (A) (A)
                 (A) (A) (A)
       Virtual   (A) (A) (A) (A) (A) (A) (A) (A) (A) (A) (A) (A)
                 (A) (A) (A) (A) (A) (A) (A) (A) (A) (A) (A) (A)
                 (A) (A) (A) (A) (A) (A) (A) (A) (A) (A) (A) (A)
                 (A) (A) (A) (A) (A) (A) (A) (A) (A) (A) (A) (A)
                 (A) (A) (A) (A) (A) (A) (A) (A) (A) (A) (A) (A)
                 (A) (A) (A) (A) (A) (A) (A) (A) (A) (A) (A) (A)
                 (A) (A) (A) (A) (A) (A) (A) (A) (A) (A) (A) (A)
                 (A) (A) (A) (A) (A) (A) (A) (A) (A) (A) (A) (A)
                 (A) (A) (A) (A) (A) (A) (A) (A) (A) (A) (A) (A)
                 (A) (A) (A) (A) (A) (A) (A) (A) (A) (A) (A) (A)
                 (A) (A) (A) (A) (A) (A) (A) (A) (A) (A) (A) (A)
                 (A) (A) (A) (A) (A) (A) (A) (A) (A) (A) (A) (A)
                 (A) (A) (A) (A) (A) (A) (A) (A) (A) (A) (A) (A)
                 (A) (A) (A) (A) (A) (A) (A) (A) (A) (A) (A) (A)
                 (A) (A) (A) (A) (A) (A) (A) (A) (A) (A) (A) (A)
                 (A) (A) (A) (A) (A) (A) (A) (A) (A) (A) (A) (A)
                 (A) (A) (A) (A) (A) (A) (A) (A) (A) (A) (A) (A)
                 (A) (A) (A) (A) (A) (A) (A) (A) (A) (A) (A) (A)
                 (A) (A) (A) (A) (A) (A) (A) (A) (A) (A) (A) (A)
                 (A) (A) (A) (A) (A) (A) (A) (A) (A) (A) (A) (A)
                 (A) (A) (A) (A) (A) (A) (A) (A) (A) (A) (A) (A)
                 (A) (A) (A) (A) (A) (A) (A) (A) (A) (A) (A) (A)
                 (A) (A) (A) (A) (A) (A) (A) (A) (A) (A) (A) (A)
                 (A) (A) (A) (A) (A) (A) (A) (A) (A) (A) (A) (A)
                 (A) (A) (A) (A) (A) (A) (A) (A) (A) (A) (A) (A)
                 (A) (A) (A) (A) (A) (A) (A) (A) (A) (A) (A) (A)
                 (A) (A) (A)
 The electronic state is 1-A.
 Alpha  occ. eigenvalues --  -19.70436 -19.62099 -19.62095 -10.70135 -10.70133
 Alpha  occ. eigenvalues --  -10.58694 -10.58358 -10.58355 -10.58340 -10.58113
 Alpha  occ. eigenvalues --  -10.58100 -10.57990 -10.57988 -10.57200 -10.57199
 Alpha  occ. eigenvalues --   -1.28865  -1.19206  -1.15247  -1.04353  -0.97606
 Alpha  occ. eigenvalues --   -0.94184  -0.89018  -0.87712  -0.81987  -0.77559
 Alpha  occ. eigenvalues --   -0.76320  -0.74383  -0.67498  -0.63668  -0.62817
 Alpha  occ. eigenvalues --   -0.61506  -0.59843  -0.57402  -0.57162  -0.55545
 Alpha  occ. eigenvalues --   -0.54129  -0.52160  -0.51015  -0.51009  -0.49923
 Alpha  occ. eigenvalues --   -0.49190  -0.48318  -0.44672  -0.43771  -0.42838
 Alpha  occ. eigenvalues --   -0.41234  -0.38708  -0.38649  -0.37473  -0.34245
 Alpha  occ. eigenvalues --   -0.30612
 Alpha virt. eigenvalues --   -0.09616  -0.03795  -0.03536  -0.02806  -0.02462
 Alpha virt. eigenvalues --   -0.01509   0.00033   0.00248   0.00820   0.01387
 Alpha virt. eigenvalues --    0.02423   0.02871   0.02938   0.03204   0.03438
 Alpha virt. eigenvalues --    0.06041   0.06105   0.06325   0.06561   0.06712
 Alpha virt. eigenvalues --    0.06900   0.08022   0.09366   0.09837   0.10120
 Alpha virt. eigenvalues --    0.10271   0.10619   0.10904   0.11119   0.11390
 Alpha virt. eigenvalues --    0.11636   0.11880   0.12344   0.12576   0.13496
 Alpha virt. eigenvalues --    0.14192   0.14798   0.15007   0.15075   0.16578
 Alpha virt. eigenvalues --    0.16587   0.16993   0.19334   0.19668   0.20649
 Alpha virt. eigenvalues --    0.20945   0.21268   0.21390   0.21447   0.21671
 Alpha virt. eigenvalues --    0.22345   0.23589   0.23677   0.24652   0.24926
 Alpha virt. eigenvalues --    0.25233   0.26248   0.26435   0.26958   0.27334
 Alpha virt. eigenvalues --    0.27562   0.27766   0.27962   0.28749   0.29028
 Alpha virt. eigenvalues --    0.29093   0.31232   0.31305   0.31715   0.31891
 Alpha virt. eigenvalues --    0.32143   0.32604   0.32953   0.35147   0.35699
 Alpha virt. eigenvalues --    0.37889   0.38141   0.39154   0.41414   0.41463
 Alpha virt. eigenvalues --    0.43081   0.44657   0.47519   0.48223   0.48529
 Alpha virt. eigenvalues --    0.50602   0.51552   0.52919   0.53763   0.54632
 Alpha virt. eigenvalues --    0.56222   0.56414   0.56942   0.58265   0.58362
 Alpha virt. eigenvalues --    0.59017   0.59438   0.60321   0.60983   0.63299
 Alpha virt. eigenvalues --    0.63925   0.64237   0.65136   0.65269   0.65649
 Alpha virt. eigenvalues --    0.65703   0.69161   0.69223   0.70929   0.71280
 Alpha virt. eigenvalues --    0.71288   0.74242   0.75768   0.76027   0.77773
 Alpha virt. eigenvalues --    0.78199   0.78828   0.79943   0.80584   0.81885
 Alpha virt. eigenvalues --    0.84810   0.84862   0.86864   0.87432   0.88152
 Alpha virt. eigenvalues --    0.90521   0.90715   0.91504   0.91946   0.92227
 Alpha virt. eigenvalues --    0.94822   0.96210   0.96744   0.96997   0.97712
 Alpha virt. eigenvalues --    0.98753   1.00425   1.01224   1.05081   1.05955
 Alpha virt. eigenvalues --    1.07620   1.08603   1.09578   1.09917   1.10630
 Alpha virt. eigenvalues --    1.12013   1.13254   1.13529   1.15374   1.15456
 Alpha virt. eigenvalues --    1.17235   1.18104   1.20371   1.22720   1.23077
 Alpha virt. eigenvalues --    1.24458   1.29860   1.31603   1.32001   1.34221
 Alpha virt. eigenvalues --    1.35794   1.37198   1.39249   1.44340   1.44707
 Alpha virt. eigenvalues --    1.48270   1.48881   1.49161   1.51675   1.52159
 Alpha virt. eigenvalues --    1.52936   1.54180   1.56944   1.57505   1.59149
 Alpha virt. eigenvalues --    1.60018   1.63439   1.64256   1.65077   1.69212
 Alpha virt. eigenvalues --    1.69979   1.71501   1.73996   1.74081   1.74645
 Alpha virt. eigenvalues --    1.75024   1.77666   1.78953   1.79149   1.82279
 Alpha virt. eigenvalues --    1.83070   1.88904   1.89778   1.90554   1.91396
 Alpha virt. eigenvalues --    1.93046   1.93651   1.93759   1.94597   1.94963
 Alpha virt. eigenvalues --    1.96731   1.97084   1.99615   2.01188   2.02591
 Alpha virt. eigenvalues --    2.02807   2.06574   2.09166   2.12372   2.16408
 Alpha virt. eigenvalues --    2.17427   2.20256   2.20529   2.21219   2.24070
 Alpha virt. eigenvalues --    2.32777   2.35932   2.39075   2.43762   2.43883
 Alpha virt. eigenvalues --    2.45919   2.47714   2.53826   2.56816   2.57089
 Alpha virt. eigenvalues --    2.64649   2.67062   2.67865   2.69100   2.69298
 Alpha virt. eigenvalues --    2.69546   2.69564   2.71756   2.72267   2.72316
 Alpha virt. eigenvalues --    2.72515   2.75065   2.78773   2.79342   2.83272
 Alpha virt. eigenvalues --    2.85243   2.85654   2.86803   2.87026   2.93133
 Alpha virt. eigenvalues --    2.93732   2.94901   2.95594   2.96032   2.98679
 Alpha virt. eigenvalues --    3.01107   3.02389   3.08692   3.09684   3.11935
 Alpha virt. eigenvalues --    3.12800   3.17865   3.24600   3.24691   3.28740
 Alpha virt. eigenvalues --    3.29188   3.31190   3.40990   3.41919   3.42191
 Alpha virt. eigenvalues --    3.42447   3.44066   3.44690   3.47782   3.51270
 Alpha virt. eigenvalues --    3.53392   3.59316   3.59504   3.62406   3.63069
 Alpha virt. eigenvalues --    3.70389   3.73180   3.76965   3.83974   3.95662
 Alpha virt. eigenvalues --    4.05939   4.07765   4.10952   4.14164   4.17148
 Alpha virt. eigenvalues --    4.31699   4.37005   4.41229   4.53452   4.88487
 Alpha virt. eigenvalues --    4.90649   5.05745   5.12477   5.15149   5.30089
 Alpha virt. eigenvalues --    5.33066   5.46226   5.75112   5.85695   6.14416
 Alpha virt. eigenvalues --   23.54461  23.85200  23.85694  23.89785  23.94268
 Alpha virt. eigenvalues --   24.02928  24.03067  24.08202  24.09369  24.13091
 Alpha virt. eigenvalues --   24.19004  24.20198  49.89911  50.03733  50.06180
          Condensed to atoms (all electrons):
               1          2          3          4          5          6
     1  O    8.328148  -0.026779  -0.026780  -0.045230  -0.011926  -0.270586
     2  O   -0.026779   7.905749  -0.000024   0.036716  -0.011508  -0.168158
     3  O   -0.026780  -0.000024   7.905723   0.036730  -0.011522  -0.064701
     4  C   -0.045230   0.036716   0.036730   6.028512   0.559022   0.527002
     5  C   -0.011926  -0.011508  -0.011522   0.559022   9.388385  -0.146328
     6  C   -0.270586  -0.168158  -0.064701   0.527002  -0.146328  11.333342
     7  C   -0.270607  -0.064686  -0.167987   0.526521  -0.147079  -0.230037
     8  C    0.024773   0.020431  -0.001389  -0.234072  -1.203273   0.197179
     9  C    0.024771  -0.001386   0.020425  -0.234156  -1.204029  -0.181162
    10  C    0.123161  -0.033863   0.003952  -0.011447   0.593364  -0.711677
    11  C    0.123157   0.003956  -0.033921  -0.011149   0.592664   0.098593
    12  C    0.009815   0.368955   0.088945  -0.644915  -0.379150  -3.720447
    13  C    0.009800   0.088914   0.368865  -0.644491  -0.378212   1.444620
    14  C    0.062348   0.106084  -0.002794  -0.134361  -0.792288  -2.039055
    15  C    0.062360  -0.002793   0.106015  -0.134086  -0.792489  -0.484995
    16  H    0.000128  -0.000199   0.000084   0.004737  -0.037239   0.011924
    17  H    0.000128   0.000084  -0.000199   0.004736  -0.037275   0.003702
    18  H   -0.002170  -0.007493   0.000291   0.005979   0.020129   0.011007
    19  H   -0.002174   0.000291  -0.007496   0.005973   0.020130   0.012252
    20  H    0.000116   0.002127  -0.000081  -0.000918  -0.032430   0.001991
    21  H    0.000117  -0.000081   0.002128  -0.000918  -0.032434  -0.016002
               7          8          9         10         11         12
     1  O   -0.270607   0.024773   0.024771   0.123161   0.123157   0.009815
     2  O   -0.064686   0.020431  -0.001386  -0.033863   0.003956   0.368955
     3  O   -0.167987  -0.001389   0.020425   0.003952  -0.033921   0.088945
     4  C    0.526521  -0.234072  -0.234156  -0.011447  -0.011149  -0.644915
     5  C   -0.147079  -1.203273  -1.204029   0.593364   0.592664  -0.379150
     6  C   -0.230037   0.197179  -0.181162  -0.711677   0.098593  -3.720447
     7  C   11.334011  -0.180978   0.197807   0.097931  -0.711627   1.445004
     8  C   -0.180978   8.310440   0.422499  -2.097149  -1.139380  -0.527648
     9  C    0.197807   0.422499   8.311200  -1.139858  -2.097337   0.675219
    10  C    0.097931  -2.097149  -1.139858  10.402981   0.608767  -0.098734
    11  C   -0.711627  -1.139380  -2.097337   0.608767  10.400922  -0.506923
    12  C    1.445004  -0.527648   0.675219  -0.098734  -0.506923  11.099346
    13  C   -3.720876   0.675088  -0.527868  -0.506942  -0.098433  -1.841381
    14  C   -0.484883   1.589339  -0.098698  -1.005070  -0.101379   0.224993
    15  C   -2.039170  -0.099259   1.589072  -0.101269  -1.003890  -0.098333
    16  H    0.003700   0.359094   0.052008   0.019967  -0.006147  -0.022147
    17  H    0.011946   0.052021   0.359122  -0.006150   0.019955   0.012594
    18  H    0.012237  -0.037080  -0.023442   0.458694   0.009001  -0.007991
    19  H    0.011031  -0.023429  -0.037095   0.009000   0.458611  -0.007208
    20  H   -0.015997   0.009125   0.010016  -0.087987   0.001497  -0.009996
    21  H    0.001975   0.009994   0.009138   0.001499  -0.087951   0.004236
              13         14         15         16         17         18
     1  O    0.009800   0.062348   0.062360   0.000128   0.000128  -0.002170
     2  O    0.088914   0.106084  -0.002793  -0.000199   0.000084  -0.007493
     3  O    0.368865  -0.002794   0.106015   0.000084  -0.000199   0.000291
     4  C   -0.644491  -0.134361  -0.134086   0.004737   0.004736   0.005979
     5  C   -0.378212  -0.792288  -0.792489  -0.037239  -0.037275   0.020129
     6  C    1.444620  -2.039055  -0.484995   0.011924   0.003702   0.011007
     7  C   -3.720876  -0.484883  -2.039170   0.003700   0.011946   0.012237
     8  C    0.675088   1.589339  -0.099259   0.359094   0.052021  -0.037080
     9  C   -0.527868  -0.098698   1.589072   0.052008   0.359122  -0.023442
    10  C   -0.506942  -1.005070  -0.101269   0.019967  -0.006150   0.458694
    11  C   -0.098433  -0.101379  -1.003890  -0.006147   0.019955   0.009001
    12  C   -1.841381   0.224993  -0.098333  -0.022147   0.012594  -0.007991
    13  C   11.099534  -0.098372   0.224598   0.012593  -0.022148  -0.007213
    14  C   -0.098372   9.231238  -0.227818  -0.081502   0.019918  -0.113551
    15  C    0.224598  -0.227818   9.231415   0.019918  -0.081502   0.001942
    16  H    0.012593  -0.081502   0.019918   0.412208   0.000931   0.002042
    17  H   -0.022148   0.019918  -0.081502   0.000931   0.412212  -0.000155
    18  H   -0.007213  -0.113551   0.001942   0.002042  -0.000155   0.388168
    19  H   -0.007973   0.001942  -0.113556  -0.000155   0.002042  -0.000127
    20  H    0.004237   0.416530  -0.001813  -0.006087   0.000829  -0.007880
    21  H   -0.010003  -0.001819   0.416545   0.000830  -0.006088   0.000027
              19         20         21
     1  O   -0.002174   0.000116   0.000117
     2  O    0.000291   0.002127  -0.000081
     3  O   -0.007496  -0.000081   0.002128
     4  C    0.005973  -0.000918  -0.000918
     5  C    0.020130  -0.032430  -0.032434
     6  C    0.012252   0.001991  -0.016002
     7  C    0.011031  -0.015997   0.001975
     8  C   -0.023429   0.009125   0.009994
     9  C   -0.037095   0.010016   0.009138
    10  C    0.009000  -0.087987   0.001499
    11  C    0.458611   0.001497  -0.087951
    12  C   -0.007208  -0.009996   0.004236
    13  C   -0.007973   0.004237  -0.010003
    14  C    0.001942   0.416530  -0.001819
    15  C   -0.113556  -0.001813   0.416545
    16  H   -0.000155  -0.006087   0.000830
    17  H    0.002042   0.000829  -0.006088
    18  H   -0.000127  -0.007880   0.000027
    19  H    0.388174   0.000027  -0.007876
    20  H    0.000027   0.408220  -0.000409
    21  H   -0.007876  -0.000409   0.408218
 Mulliken charges:
               1
     1  O   -0.112571
     2  O   -0.216336
     3  O   -0.216263
     4  C    0.359816
     5  C    0.043487
     6  C    0.391538
     7  C    0.391767
     8  C   -0.126329
     9  C   -0.126248
    10  C   -0.519169
    11  C   -0.518985
    12  C   -0.064235
    13  C   -0.064338
    14  C   -0.470803
    15  C   -0.470892
    16  H    0.253310
    17  H    0.253295
    18  H    0.297586
    19  H    0.297618
    20  H    0.308881
    21  H    0.308872
 Sum of Mulliken charges =  -0.00000
 Mulliken charges with hydrogens summed into heavy atoms:
               1
     1  O   -0.112571
     2  O   -0.216336
     3  O   -0.216263
     4  C    0.359816
     5  C    0.043487
     6  C    0.391538
     7  C    0.391767
     8  C    0.126981
     9  C    0.127047
    10  C   -0.221583
    11  C   -0.221367
    12  C   -0.064235
    13  C   -0.064338
    14  C   -0.161922
    15  C   -0.162020
 Electronic spatial extent (au):  <R**2>=           2594.3091
 Charge=             -0.0000 electrons
 Dipole moment (field-independent basis, Debye):
    X=              7.4399    Y=             -0.0015    Z=              0.0003  Tot=              7.4399
 Quadrupole moment (field-independent basis, Debye-Ang):
   XX=            -90.9868   YY=            -82.4717   ZZ=            -87.0472
   XY=              0.0039   XZ=              0.0023   YZ=              0.0017
 Traceless Quadrupole moment (field-independent basis, Debye-Ang):
   XX=             -4.1515   YY=              4.3635   ZZ=             -0.2120
   XY=              0.0039   XZ=              0.0023   YZ=              0.0017
 Octapole moment (field-independent basis, Debye-Ang**2):
  XXX=             66.3515  YYY=             -0.0117  ZZZ=              0.0011  XYY=             47.1409
  XXY=             -0.0073  XXZ=             -0.0002  XZZ=            -18.1640  YZZ=             -0.0012
  YYZ=              0.0085  XYZ=              0.0010
 Hexadecapole moment (field-independent basis, Debye-Ang**3):
 XXXX=          -1736.0937 YYYY=          -1514.1626 ZZZZ=            -93.5951 XXXY=              0.0297
 XXXZ=              0.0174 YYYX=              0.0300 YYYZ=              0.0196 ZZZX=             -0.0025
 ZZZY=             -0.0080 XXYY=           -612.9931 XXZZ=           -316.2430 YYZZ=           -308.7994
 XXYZ=              0.0175 YYXZ=              0.0234 ZZXY=              0.0020
 N-N= 9.162142343844D+02 E-N=-3.432648593646D+03  KE= 6.836575168963D+02
 R6APFD:  NTU= -4 IXU= 1 FactS= 1.050
 Calling FoFJK, ICntrl=      2127 FMM=F ISym2X=0 I1Cent= 0 IOpClX= 0 NMat=1 NMatS=1 NMatT=0.
 ***** Axes restored to original set *****
 -------------------------------------------------------------------
 Center     Atomic                   Forces (Hartrees/Bohr)
 Number     Number              X              Y              Z
 -------------------------------------------------------------------
      1        8          -0.017333107    0.000064974   -0.000010519
      2        8           0.013935692    0.049902341    0.000038657
      3        8           0.013871851   -0.049786791   -0.000030327
      4        6           0.012478604    0.000186811   -0.000015435
      5        6           0.006519152   -0.000012258    0.000030725
      6        6           0.004967057   -0.028412834    0.000006563
      7        6           0.004975404    0.028168489   -0.000050444
      8        6          -0.005061088   -0.024704047   -0.000024389
      9        6          -0.005042277    0.024661848   -0.000020754
     10        6          -0.013565391    0.010951825    0.000007049
     11        6          -0.013608973   -0.010835695    0.000010673
     12        6          -0.012919027   -0.058200792   -0.000076048
     13        6          -0.012895298    0.058041078    0.000096921
     14        6           0.016045125    0.015665102    0.000015422
     15        6           0.016072594   -0.015617825    0.000013728
     16        1           0.001172256    0.003085900    0.000006104
     17        1           0.001172478   -0.003081210    0.000000650
     18        1          -0.005805039    0.002323900    0.000002263
     19        1          -0.005756111   -0.002402750    0.000000304
     20        1           0.000388792   -0.000852428   -0.000001274
     21        1           0.000387303    0.000854363    0.000000132
 -------------------------------------------------------------------
 Cartesian Forces:  Max     0.058200792 RMS     0.016703061

 GradGradGradGradGradGradGradGradGradGradGradGradGradGradGradGradGradGrad
 Berny optimization.
 FormGI is forming the generalized inverse of G from B-inverse, IUseBI=4.
 Internal  Forces:  Max     0.049991365 RMS     0.008612554
 Search for a local minimum.
 Step number   1 out of a maximum of  126
 All quantities printed in internal units (Hartrees-Bohrs-Radians)
 Mixed Optimization -- RFO/linear search
 Second derivative matrix not updated -- first step.
 ITU=  0
     Eigenvalues ---    0.01447   0.01456   0.01659   0.01791   0.01894
     Eigenvalues ---    0.01913   0.02022   0.02038   0.02100   0.02103
     Eigenvalues ---    0.02122   0.02131   0.02134   0.02147   0.02153
     Eigenvalues ---    0.02170   0.02170   0.02190   0.16000   0.16000
     Eigenvalues ---    0.16000   0.16000   0.16000   0.16000   0.22063
     Eigenvalues ---    0.22215   0.23364   0.23750   0.24890   0.24963
     Eigenvalues ---    0.25000   0.25000   0.25000   0.25000   0.34141
     Eigenvalues ---    0.35074   0.35074   0.35194   0.35210   0.35250
     Eigenvalues ---    0.35250   0.35656   0.36383   0.40314   0.41981
     Eigenvalues ---    0.44029   0.44325   0.45409   0.45426   0.45986
     Eigenvalues ---    0.46440   0.46479   0.46683   0.51745   0.52851
     Eigenvalues ---    0.92871   0.92922
 RFO step:  Lambda=-1.55027265D-02 EMin= 1.44675464D-02
 Linear search not attempted -- first point.
 Iteration  1 RMS(Cart)=  0.02519425 RMS(Int)=  0.00070642
 Iteration  2 RMS(Cart)=  0.00075160 RMS(Int)=  0.00001084
 Iteration  3 RMS(Cart)=  0.00000092 RMS(Int)=  0.00001082
 Variable       Old X    -DE/DX   Delta X   Delta X   Delta X     New X
                                 (Linear)    (Quad)   (Total)
    R1        2.56488   0.00798   0.00000   0.01332   0.01330   2.57819
    R2        2.56522   0.00791   0.00000   0.01319   0.01317   2.57839
    R3        2.31637  -0.04999   0.00000  -0.05295  -0.05295   2.26343
    R4        2.31615  -0.04986   0.00000  -0.05277  -0.05277   2.26337
    R5        2.67604   0.00440   0.00000   0.01394   0.01395   2.68999
    R6        2.62512   0.01705   0.00000   0.03748   0.03751   2.66262
    R7        2.62561   0.01689   0.00000   0.03716   0.03718   2.66279
    R8        2.65139   0.00907   0.00000   0.01990   0.01990   2.67129
    R9        2.65147   0.00907   0.00000   0.01990   0.01990   2.67136
   R10        2.64497  -0.01802   0.00000  -0.03862  -0.03863   2.60635
   R11        2.77923   0.00766   0.00000   0.02058   0.02058   2.79981
   R12        2.64471  -0.01795   0.00000  -0.03846  -0.03846   2.60625
   R13        2.77923   0.00766   0.00000   0.02058   0.02058   2.79981
   R14        2.63472  -0.01060   0.00000  -0.02345  -0.02345   2.61127
   R15        2.05555   0.00109   0.00000   0.00299   0.00299   2.05854
   R16        2.63456  -0.01057   0.00000  -0.02336  -0.02337   2.61119
   R17        2.05555   0.00109   0.00000   0.00299   0.00299   2.05854
   R18        2.63336   0.01359   0.00000   0.02628   0.02627   2.65963
   R19        2.05335   0.00078   0.00000   0.00213   0.00213   2.05548
   R20        2.63336   0.01362   0.00000   0.02636   0.02635   2.65971
   R21        2.05361   0.00069   0.00000   0.00187   0.00187   2.05548
   R22        2.05271   0.00093   0.00000   0.00254   0.00254   2.05524
   R23        2.05271   0.00093   0.00000   0.00254   0.00254   2.05525
    A1        2.17245   0.00253   0.00000   0.00561   0.00557   2.17802
    A2        2.09150   0.00035   0.00000   0.00183   0.00182   2.09332
    A3        2.09125   0.00041   0.00000   0.00199   0.00198   2.09323
    A4        2.10044  -0.00077   0.00000  -0.00383  -0.00381   2.09664
    A5        2.08045  -0.00426   0.00000  -0.01290  -0.01289   2.06756
    A6        2.08049  -0.00426   0.00000  -0.01290  -0.01290   2.06760
    A7        2.12225   0.00852   0.00000   0.02580   0.02579   2.14803
    A8        2.10291  -0.00049   0.00000  -0.00047  -0.00047   2.10244
    A9        2.08864  -0.00168   0.00000  -0.00346  -0.00344   2.08520
   A10        2.09164   0.00217   0.00000   0.00393   0.00391   2.09555
   A11        2.10304  -0.00052   0.00000  -0.00057  -0.00057   2.10247
   A12        2.08846  -0.00163   0.00000  -0.00332  -0.00330   2.08516
   A13        2.09168   0.00215   0.00000   0.00390   0.00388   2.09556
   A14        2.10165   0.00046   0.00000   0.00213   0.00214   2.10379
   A15        2.10589  -0.00343   0.00000  -0.01931  -0.01931   2.08659
   A16        2.07564   0.00297   0.00000   0.01717   0.01717   2.09281
   A17        2.10171   0.00044   0.00000   0.00209   0.00210   2.10380
   A18        2.10580  -0.00342   0.00000  -0.01926  -0.01926   2.08654
   A19        2.07568   0.00298   0.00000   0.01717   0.01716   2.09284
   A20        2.09337   0.00040   0.00000  -0.00098  -0.00098   2.09239
   A21        2.11748  -0.00657   0.00000  -0.03580  -0.03580   2.08168
   A22        2.07233   0.00617   0.00000   0.03678   0.03678   2.10911
   A23        2.09335   0.00040   0.00000  -0.00093  -0.00093   2.09242
   A24        2.11747  -0.00657   0.00000  -0.03581  -0.03581   2.08167
   A25        2.07236   0.00616   0.00000   0.03673   0.03673   2.10910
   A26        2.11881  -0.01615   0.00000  -0.06064  -0.06064   2.05817
   A27        2.05819   0.00077   0.00000   0.00252   0.00251   2.06069
   A28        2.10619   0.01538   0.00000   0.05812   0.05813   2.16432
   A29        2.11872  -0.01616   0.00000  -0.06063  -0.06063   2.05809
   A30        2.05819   0.00077   0.00000   0.00248   0.00247   2.06066
   A31        2.10628   0.01538   0.00000   0.05815   0.05816   2.16443
   A32        2.09650   0.00354   0.00000   0.01038   0.01038   2.10688
   A33        2.09310  -0.00169   0.00000  -0.00470  -0.00469   2.08841
   A34        2.09358  -0.00186   0.00000  -0.00568  -0.00568   2.08790
   A35        2.09653   0.00352   0.00000   0.01032   0.01032   2.10685
   A36        2.09307  -0.00167   0.00000  -0.00465  -0.00465   2.08842
   A37        2.09358  -0.00185   0.00000  -0.00567  -0.00567   2.08792
    D1       -3.14086  -0.00003   0.00000  -0.00080  -0.00076   3.14156
    D2        0.00028   0.00000   0.00000   0.00011   0.00012   0.00040
    D3        3.14156  -0.00003   0.00000  -0.00080  -0.00075   3.14081
    D4       -0.00074   0.00001   0.00000   0.00042   0.00042  -0.00032
    D5       -0.00008   0.00000   0.00000   0.00000  -0.00000  -0.00008
    D6        3.14159  -0.00000   0.00000  -0.00009  -0.00009   3.14150
    D7       -3.14134  -0.00000   0.00000  -0.00014  -0.00014  -3.14149
    D8        0.00032  -0.00001   0.00000  -0.00023  -0.00023   0.00009
    D9       -0.00009   0.00000   0.00000   0.00010   0.00010   0.00002
   D10       -3.14151   0.00000   0.00000   0.00012   0.00013  -3.14138
   D11        3.14118   0.00001   0.00000   0.00024   0.00025   3.14143
   D12       -0.00024   0.00001   0.00000   0.00027   0.00027   0.00002
   D13        0.00000   0.00000   0.00000   0.00008   0.00009   0.00009
   D14        3.14104   0.00001   0.00000   0.00042   0.00042   3.14146
   D15       -3.14126  -0.00000   0.00000  -0.00006  -0.00006  -3.14132
   D16       -0.00022   0.00001   0.00000   0.00027   0.00027   0.00005
   D17        0.00025  -0.00001   0.00000  -0.00014  -0.00014   0.00011
   D18        3.14155   0.00000   0.00000   0.00005   0.00004   3.14159
   D19       -3.14142  -0.00000   0.00000  -0.00005  -0.00005  -3.14147
   D20       -0.00013   0.00000   0.00000   0.00013   0.00013   0.00001
   D21       -0.00041   0.00001   0.00000   0.00024   0.00024  -0.00017
   D22        3.14143   0.00000   0.00000   0.00008   0.00008   3.14151
   D23        3.14126   0.00001   0.00000   0.00015   0.00015   3.14141
   D24       -0.00008  -0.00000   0.00000  -0.00001  -0.00001  -0.00009
   D25        0.00008  -0.00000   0.00000  -0.00006  -0.00007   0.00002
   D26       -3.14147  -0.00000   0.00000  -0.00005  -0.00005  -3.14152
   D27        3.14151  -0.00000   0.00000  -0.00009  -0.00009   3.14142
   D28       -0.00004  -0.00000   0.00000  -0.00007  -0.00007  -0.00012
   D29        0.00024  -0.00001   0.00000  -0.00047  -0.00048  -0.00024
   D30        3.14139   0.00001   0.00000   0.00040   0.00042  -3.14138
   D31       -3.14118  -0.00001   0.00000  -0.00045  -0.00045   3.14155
   D32       -0.00003   0.00001   0.00000   0.00042   0.00044   0.00041
   D33       -0.00025   0.00000   0.00000   0.00006   0.00005  -0.00019
   D34        3.14136   0.00000   0.00000   0.00009   0.00009   3.14145
   D35       -3.14128  -0.00001   0.00000  -0.00028  -0.00028  -3.14156
   D36        0.00032  -0.00001   0.00000  -0.00024  -0.00024   0.00008
   D37        0.00071  -0.00002   0.00000  -0.00062  -0.00062   0.00008
   D38       -3.14159   0.00001   0.00000   0.00054   0.00057  -3.14102
   D39       -3.14144  -0.00001   0.00000  -0.00029  -0.00029   3.14145
   D40       -0.00055   0.00002   0.00000   0.00088   0.00090   0.00035
   D41       -0.00025   0.00001   0.00000   0.00017   0.00017  -0.00008
   D42        3.14144   0.00000   0.00000   0.00008   0.00008   3.14151
   D43       -3.14155  -0.00000   0.00000  -0.00000  -0.00000  -3.14156
   D44        0.00013  -0.00000   0.00000  -0.00010  -0.00010   0.00004
   D45        0.00017  -0.00000   0.00000  -0.00010  -0.00010   0.00007
   D46       -3.14140  -0.00000   0.00000  -0.00012  -0.00012  -3.14153
   D47        3.14151   0.00000   0.00000   0.00006   0.00006   3.14157
   D48       -0.00006   0.00000   0.00000   0.00003   0.00003  -0.00002
   D49        0.00008  -0.00000   0.00000  -0.00007  -0.00007   0.00001
   D50        3.14158   0.00000   0.00000   0.00002   0.00002  -3.14158
   D51       -3.14155  -0.00000   0.00000  -0.00009  -0.00009   3.14155
   D52       -0.00005   0.00000   0.00000   0.00001   0.00001  -0.00005
   D53        0.00016  -0.00000   0.00000  -0.00005  -0.00005   0.00012
   D54       -3.14145  -0.00000   0.00000  -0.00002  -0.00002  -3.14147
   D55       -3.14144  -0.00000   0.00000  -0.00009  -0.00009  -3.14153
   D56        0.00013  -0.00000   0.00000  -0.00006  -0.00006   0.00007
         Item               Value     Threshold  Converged?
 Maximum Force            0.049991     0.000450     NO 
 RMS     Force            0.008613     0.000300     NO 
 Maximum Displacement     0.107809     0.001800     NO 
 RMS     Displacement     0.024970     0.001200     NO 
 Predicted change in Energy=-8.047349D-03
 GradGradGradGradGradGradGradGradGradGradGradGradGradGradGradGradGradGrad

                          Input orientation:                          
 ---------------------------------------------------------------------
 Center     Atomic      Atomic             Coordinates (Angstroms)
 Number     Number       Type             X           Y           Z
 ---------------------------------------------------------------------
      1          8           0       -2.417280   -0.000091    0.000168
      2          8           0       -2.462950   -2.196550   -0.000000
      3          8           0       -2.463112    2.196384   -0.000438
      4          6           0        0.399619   -0.000035    0.000152
      5          6           0        1.823100    0.000023    0.000029
      6          6           0       -0.303516   -1.221052    0.000032
      7          6           0       -0.303553    1.221064    0.000168
      8          6           0        2.496839   -1.242676   -0.000113
      9          6           0        2.496802    1.242787    0.000039
     10          6           0        0.377806   -2.420237   -0.000183
     11          6           0        0.377714    2.420222   -0.000042
     12          6           0       -1.785065   -1.209084   -0.000108
     13          6           0       -1.785100    1.209043    0.000123
     14          6           0        1.785204   -2.427167   -0.000263
     15          6           0        1.785157    2.427222   -0.000037
     16          1           0        3.585973   -1.263357   -0.000212
     17          1           0        3.585937    1.263465    0.000023
     18          1           0       -0.184444   -3.351362   -0.000344
     19          1           0       -0.184572    3.351329   -0.000161
     20          1           0        2.318209   -3.375194   -0.000445
     21          1           0        2.318130    3.375268   -0.000090
 ---------------------------------------------------------------------
                    Distance matrix (angstroms):
                    1          2          3          4          5
     1  O    0.000000
     2  O    2.196934   0.000000
     3  O    2.196953   4.392934   0.000000
     4  C    2.816899   3.608182   3.608253   0.000000
     5  C    4.240380   4.816135   4.816183   1.423481   0.000000
     6  C    2.441054   2.369546   4.042614   1.409000   2.452248
     7  C    2.441119   4.042657   2.369588   1.409090   2.452262
     8  C    5.068785   5.050681   6.035582   2.437721   1.413586
     9  C    5.068821   6.035576   5.050752   2.437782   1.413625
    10  C    3.697244   2.849548   5.420702   2.420300   2.818960
    11  C    3.697283   5.420697   2.849631   2.420356   2.818954
    12  C    1.364317   1.197755   3.472314   2.496927   3.805364
    13  C    1.364425   3.472397   1.197725   2.496972   3.805369
    14  C    4.852996   4.254409   6.278966   2.794783   2.427486
    15  C    4.853073   6.278986   4.254536   2.794869   2.427495
    16  H    6.134728   6.120483   6.968590   3.427657   2.168836
    17  H    6.134752   6.968553   6.120566   3.427689   2.168843
    18  H    4.026981   2.554443   5.997484   3.401841   3.906663
    19  H    4.027033   5.997496   2.554534   3.401900   3.906660
    20  H    5.815168   4.924295   7.341901   3.882355   3.411337
    21  H    5.815252   7.341926   4.924434   3.882442   3.411353
                    6          7          8          9         10
     6  C    0.000000
     7  C    2.442116   0.000000
     8  C    2.800439   3.729907   0.000000
     9  C    3.729918   2.800439   2.485463   0.000000
    10  C    1.379219   3.704500   2.424243   4.231772   0.000000
    11  C    3.704450   1.379168   4.231726   2.424229   4.840459
    12  C    1.481597   2.846137   4.282035   4.934172   2.478891
    13  C    2.846129   1.481596   4.934159   4.282035   4.224906
    14  C    2.411942   4.203866   1.381826   3.738306   1.407416
    15  C    4.203862   2.411954   3.738267   1.381783   5.047623
    16  H    3.889719   4.615274   1.089330   2.732590   3.410383
    17  H    4.615265   3.889721   2.732558   1.089331   4.884851
    18  H    2.133635   4.573977   3.411134   5.319331   1.087712
    19  H    4.573928   2.133585   5.319289   3.411116   5.798900
    20  H    3.393195   5.291429   2.139986   4.621433   2.162662
    21  H    5.291426   3.393202   4.621400   2.139953   6.111689
                   11         12         13         14         15
    11  C    0.000000
    12  C    4.224864   0.000000
    13  C    2.478854   2.418127   0.000000
    14  C    5.047594   3.772339   5.095988   0.000000
    15  C    1.407460   5.095998   3.772359   4.854388   0.000000
    16  H    4.884842   5.371312   5.912798   2.144113   4.106496
    17  H    3.410393   5.912796   5.371312   4.106507   2.144094
    18  H    5.798897   2.674199   4.833156   2.175695   6.105027
    19  H    1.087716   4.833109   2.674150   6.105000   2.175731
    20  H    6.111658   4.639923   6.152428   1.087589   5.826849
    21  H    2.162713   6.152438   4.639938   5.826856   1.087590
                   16         17         18         19         20
    16  H    0.000000
    17  H    2.526822   0.000000
    18  H    4.309966   5.959228   0.000000
    19  H    5.959222   4.309978   6.702691   0.000000
    20  H    2.463144   4.808772   2.502766   7.177048   0.000000
    21  H    4.808770   2.463137   7.177077   2.502816   6.750462
                   21
    21  H    0.000000
 Stoichiometry    C12H6O3
 Framework group  C1[X(C12H6O3)]
 Deg. of freedom    57
 Full point group                 C1      NOp   1
 Largest Abelian subgroup         C1      NOp   1
 Largest concise Abelian subgroup C1      NOp   1
                         Standard orientation:                         
 ---------------------------------------------------------------------
 Center     Atomic      Atomic             Coordinates (Angstroms)
 Number     Number       Type             X           Y           Z
 ---------------------------------------------------------------------
      1          8           0       -2.386717   -0.000055   -0.000213
      2          8           0       -2.432509    2.196401   -0.000045
      3          8           0       -2.432426   -2.196533    0.000393
      4          6           0        0.430183    0.000047   -0.000197
      5          6           0        1.853663    0.000068   -0.000074
      6          6           0       -0.273021    1.221025   -0.000077
      7          6           0       -0.272921   -1.221091   -0.000214
      8          6           0        2.527333    1.242805    0.000068
      9          6           0        2.527435   -1.242658   -0.000084
     10          6           0        0.408233    2.420248    0.000138
     11          6           0        0.408413   -2.420211   -0.000003
     12          6           0       -1.754569    1.208974    0.000063
     13          6           0       -1.754469   -1.209153   -0.000168
     14          6           0        1.815632    2.427256    0.000218
     15          6           0        1.815856   -2.427132   -0.000008
     16          1           0        3.616466    1.263547    0.000166
     17          1           0        3.616571   -1.263275   -0.000068
     18          1           0       -0.154068    3.351341    0.000299
     19          1           0       -0.153821   -3.351350    0.000116
     20          1           0        2.348583    3.375313    0.000400
     21          1           0        2.348882   -3.375149    0.000044
 ---------------------------------------------------------------------
 Rotational constants (GHZ):           0.8521603           0.7511456           0.3992354
 Standard basis: 6-311++G(d,p) (5D, 7F)
 There are   387 symmetry adapted cartesian basis functions of A   symmetry.
 There are   372 symmetry adapted basis functions of A   symmetry.
   372 basis functions,   594 primitive gaussians,   387 cartesian basis functions
    51 alpha electrons       51 beta electrons
       nuclear repulsion energy       914.9130051681 Hartrees.
 NAtoms=   21 NActive=   21 NUniq=   21 SFac= 1.00D+00 NAtFMM=   60 NAOKFM=F Big=F
 Integral buffers will be    131072 words long.
 Raffenetti 2 integral format.
 Two-electron integral symmetry is turned on.
 R6APFD:  NTU= -4 IXU= 1 FactS= 1.050
 Nuclear repulsion after empirical dispersion term =      914.8966854557 Hartrees.
 One-electron integrals computed using PRISM.
 NBasis=   372 RedAO= T EigKep=  5.18D-06  NBF=   372
 NBsUse=   366 1.00D-06 EigRej=  8.89D-07 NBFU=   366
 Initial guess from the checkpoint file:  "NTHC0138.chk"
 B after Tr=    -0.000000    0.000000   -0.000000
         Rot=    1.000000   -0.000004    0.000001   -0.000016 Ang=  -0.00 deg.
 ExpMin= 3.60D-02 ExpMax= 8.59D+03 ExpMxC= 1.30D+03 IAcc=3 IRadAn=         5 AccDes= 0.00D+00
 Harris functional with IExCor= 1009 and IRadAn=       5 diagonalized for initial guess.
 HarFok:  IExCor= 1009 AccDes= 0.00D+00 IRadAn=         5 IDoV= 1 UseB2=F ITyADJ=14
 ICtDFT=  3500011 ScaDFX=  1.000000  1.000000  1.000000  1.000000
 FoFCou: FMM=F IPFlag=           0 FMFlag=      100000 FMFlg1=           0
         NFxFlg=           0 DoJE=T BraDBF=F KetDBF=T FulRan=T
         wScrn=  0.000000 ICntrl=       500 IOpCl=  0 I1Cent=   200000004 NGrid=           0
         NMat0=    1 NMatS0=      1 NMatT0=    0 NMatD0=    1 NMtDS0=    0 NMtDT0=    0
 Petite list used in FoFCou.
 Requested convergence on RMS density matrix=1.00D-08 within  32 cycles.
 Requested convergence on MAX density matrix=1.00D-06.
 Requested convergence on             energy=1.00D-06.
 No special actions if energy rises.
 SCF Done:  E(RM08HX) =  -686.568801482     A.U. after   13 cycles
            NFock= 13  Conv=0.91D-08     -V/T= 2.0041
 QCSCF skips out because SCF is already converged.
 R6APFD:  NTU= -4 IXU= 1 FactS= 1.050
 Calling FoFJK, ICntrl=      2127 FMM=F ISym2X=0 I1Cent= 0 IOpClX= 0 NMat=1 NMatS=1 NMatT=0.
 ***** Axes restored to original set *****
 -------------------------------------------------------------------
 Center     Atomic                   Forces (Hartrees/Bohr)
 Number     Number              X              Y              Z
 -------------------------------------------------------------------
      1        8          -0.001276035    0.000040737    0.000001616
      2        8           0.006593355    0.005771323   -0.000025343
      3        8           0.006587333   -0.005743572    0.000035225
      4        6           0.004149157    0.000051794   -0.000007786
      5        6          -0.003802395    0.000004211    0.000010606
      6        6           0.002256608   -0.003665348   -0.000020513
      7        6           0.002255180    0.003599424    0.000007501
      8        6          -0.003119403   -0.008067910   -0.000007590
      9        6          -0.003116375    0.008037369   -0.000004653
     10        6          -0.003544621    0.002029625   -0.000002004
     11        6          -0.003520801   -0.002003182    0.000010779
     12        6          -0.006202594   -0.017800983    0.000068247
     13        6          -0.006214456    0.017731359   -0.000076537
     14        6           0.005846417    0.004500584    0.000007825
     15        6           0.005822609   -0.004487500    0.000000685
     16        1           0.000142448    0.001137984    0.000001021
     17        1           0.000142253   -0.001135845    0.000000489
     18        1          -0.001173946    0.000101862   -0.000000001
     19        1          -0.001171726   -0.000101923    0.000001295
     20        1          -0.000324986   -0.000378491    0.000000470
     21        1          -0.000328020    0.000378481   -0.000001331
 -------------------------------------------------------------------
 Cartesian Forces:  Max     0.017800983 RMS     0.004415013

 GradGradGradGradGradGradGradGradGradGradGradGradGradGradGradGradGradGrad
 Berny optimization.
 Using GEDIIS/GDIIS optimizer.
 FormGI is forming the generalized inverse of G from B-inverse, IUseBI=4.
 Internal  Forces:  Max     0.009181112 RMS     0.002160459
 Search for a local minimum.
 Step number   2 out of a maximum of  126
 All quantities printed in internal units (Hartrees-Bohrs-Radians)
 Mixed Optimization -- RFO/linear search
 Update second derivatives using D2CorX and points    1    2
 DE= -8.67D-03 DEPred=-8.05D-03 R= 1.08D+00
 TightC=F SS=  1.41D+00  RLast= 1.95D-01 DXNew= 5.0454D-01 5.8649D-01
 Trust test= 1.08D+00 RLast= 1.95D-01 DXMaxT set to 5.05D-01
 ITU=  1  0
 Use linear search instead of GDIIS.
     Eigenvalues ---    0.01413   0.01443   0.01638   0.01794   0.01892
     Eigenvalues ---    0.01915   0.02023   0.02039   0.02101   0.02104
     Eigenvalues ---    0.02123   0.02132   0.02135   0.02147   0.02153
     Eigenvalues ---    0.02170   0.02170   0.02191   0.15536   0.16000
     Eigenvalues ---    0.16000   0.16000   0.16000   0.16036   0.22062
     Eigenvalues ---    0.22214   0.23357   0.23427   0.24432   0.24888
     Eigenvalues ---    0.24963   0.25000   0.25000   0.28731   0.34167
     Eigenvalues ---    0.35067   0.35074   0.35165   0.35203   0.35247
     Eigenvalues ---    0.35250   0.35620   0.37140   0.40007   0.40938
     Eigenvalues ---    0.42013   0.44028   0.44940   0.45410   0.45495
     Eigenvalues ---    0.46444   0.46686   0.46865   0.51527   0.52866
     Eigenvalues ---    0.87240   0.92897
 RFO step:  Lambda=-1.24378951D-03 EMin= 1.41348888D-02
 Quartic linear search produced a step of  0.11505.
 Iteration  1 RMS(Cart)=  0.00719708 RMS(Int)=  0.00002966
 Iteration  2 RMS(Cart)=  0.00003341 RMS(Int)=  0.00000448
 Iteration  3 RMS(Cart)=  0.00000000 RMS(Int)=  0.00000448
 Variable       Old X    -DE/DX   Delta X   Delta X   Delta X     New X
                                 (Linear)    (Quad)   (Total)
    R1        2.57819   0.00918   0.00153   0.01930   0.02083   2.59902
    R2        2.57839   0.00914   0.00152   0.01922   0.02074   2.59913
    R3        2.26343  -0.00849  -0.00609  -0.00825  -0.01435   2.24908
    R4        2.26337  -0.00846  -0.00607  -0.00822  -0.01430   2.24908
    R5        2.68999  -0.00343   0.00160  -0.00981  -0.00819   2.68180
    R6        2.66262   0.00294   0.00431   0.00449   0.00881   2.67143
    R7        2.66279   0.00290   0.00428   0.00440   0.00868   2.67148
    R8        2.67129   0.00287   0.00229   0.00620   0.00850   2.67979
    R9        2.67136   0.00286   0.00229   0.00617   0.00846   2.67983
   R10        2.60635  -0.00333  -0.00444  -0.00647  -0.01092   2.59542
   R11        2.79981   0.00024   0.00237  -0.00011   0.00226   2.80207
   R12        2.60625  -0.00331  -0.00443  -0.00642  -0.01085   2.59540
   R13        2.79981   0.00024   0.00237  -0.00013   0.00224   2.80205
   R14        2.61127  -0.00486  -0.00270  -0.01055  -0.01325   2.59802
   R15        2.05854   0.00012   0.00034   0.00026   0.00060   2.05913
   R16        2.61119  -0.00484  -0.00269  -0.01050  -0.01320   2.59800
   R17        2.05854   0.00012   0.00034   0.00025   0.00060   2.05914
   R18        2.65963   0.00235   0.00302   0.00472   0.00774   2.66737
   R19        2.05548   0.00052   0.00024   0.00155   0.00179   2.05727
   R20        2.65971   0.00234   0.00303   0.00468   0.00770   2.66742
   R21        2.05548   0.00052   0.00022   0.00156   0.00177   2.05726
   R22        2.05524   0.00017   0.00029   0.00043   0.00072   2.05597
   R23        2.05525   0.00017   0.00029   0.00043   0.00072   2.05596
    A1        2.17802   0.00282   0.00064   0.01608   0.01671   2.19474
    A2        2.09332  -0.00112   0.00021  -0.00381  -0.00360   2.08972
    A3        2.09323  -0.00111   0.00023  -0.00376  -0.00353   2.08970
    A4        2.09664   0.00223  -0.00044   0.00757   0.00712   2.10376
    A5        2.06756  -0.00020  -0.00148  -0.00090  -0.00237   2.06518
    A6        2.06760  -0.00021  -0.00148  -0.00093  -0.00240   2.06519
    A7        2.14803   0.00041   0.00297   0.00183   0.00478   2.15281
    A8        2.10244   0.00097  -0.00005   0.00471   0.00466   2.10709
    A9        2.08520   0.00094  -0.00040   0.00256   0.00217   2.08737
   A10        2.09555  -0.00192   0.00045  -0.00727  -0.00682   2.08873
   A11        2.10247   0.00097  -0.00007   0.00470   0.00463   2.10710
   A12        2.08516   0.00096  -0.00038   0.00259   0.00221   2.08737
   A13        2.09556  -0.00193   0.00045  -0.00728  -0.00684   2.08872
   A14        2.10379   0.00120   0.00025   0.00518   0.00543   2.10922
   A15        2.08659  -0.00177  -0.00222  -0.00971  -0.01193   2.07465
   A16        2.09281   0.00058   0.00198   0.00453   0.00651   2.09932
   A17        2.10380   0.00119   0.00024   0.00517   0.00542   2.10922
   A18        2.08654  -0.00177  -0.00222  -0.00969  -0.01191   2.07463
   A19        2.09284   0.00057   0.00197   0.00452   0.00649   2.09934
   A20        2.09239  -0.00023  -0.00011  -0.00135  -0.00147   2.09092
   A21        2.08168  -0.00097  -0.00412  -0.00486  -0.00897   2.07271
   A22        2.10911   0.00120   0.00423   0.00621   0.01044   2.11955
   A23        2.09242  -0.00023  -0.00011  -0.00137  -0.00149   2.09093
   A24        2.08167  -0.00097  -0.00412  -0.00484  -0.00895   2.07272
   A25        2.10910   0.00120   0.00423   0.00621   0.01044   2.11954
   A26        2.05817   0.00419  -0.00698   0.02087   0.01389   2.07206
   A27        2.06069  -0.00348   0.00029  -0.01440  -0.01411   2.04658
   A28        2.16432  -0.00072   0.00669  -0.00647   0.00022   2.16454
   A29        2.05809   0.00420  -0.00698   0.02091   0.01393   2.07203
   A30        2.06066  -0.00347   0.00028  -0.01439  -0.01410   2.04656
   A31        2.16443  -0.00073   0.00669  -0.00652   0.00017   2.16460
   A32        2.10688  -0.00062   0.00119  -0.00383  -0.00264   2.10423
   A33        2.08841   0.00079  -0.00054   0.00522   0.00468   2.09309
   A34        2.08790  -0.00017  -0.00065  -0.00139  -0.00204   2.08586
   A35        2.10685  -0.00061   0.00119  -0.00381  -0.00263   2.10422
   A36        2.08842   0.00079  -0.00054   0.00523   0.00470   2.09311
   A37        2.08792  -0.00018  -0.00065  -0.00142  -0.00206   2.08585
    D1        3.14156   0.00002  -0.00009   0.00129   0.00122  -3.14041
    D2        0.00040  -0.00001   0.00001  -0.00038  -0.00036   0.00003
    D3        3.14081   0.00002  -0.00009   0.00167   0.00160  -3.14078
    D4       -0.00032  -0.00001   0.00005  -0.00051  -0.00046  -0.00078
    D5       -0.00008   0.00000  -0.00000   0.00021   0.00021   0.00013
    D6        3.14150   0.00000  -0.00001   0.00020   0.00019  -3.14150
    D7       -3.14149   0.00000  -0.00002   0.00007   0.00006  -3.14143
    D8        0.00009  -0.00000  -0.00003   0.00007   0.00004   0.00013
    D9        0.00002  -0.00000   0.00001  -0.00020  -0.00019  -0.00017
   D10       -3.14138  -0.00001   0.00001  -0.00056  -0.00055   3.14125
   D11        3.14143  -0.00000   0.00003  -0.00006  -0.00004   3.14139
   D12        0.00002  -0.00001   0.00003  -0.00042  -0.00040  -0.00037
   D13        0.00009  -0.00000   0.00001  -0.00024  -0.00023  -0.00014
   D14        3.14146  -0.00000   0.00005  -0.00033  -0.00029   3.14117
   D15       -3.14132  -0.00001  -0.00001  -0.00038  -0.00038   3.14149
   D16        0.00005  -0.00001   0.00003  -0.00046  -0.00044  -0.00039
   D17        0.00011  -0.00000  -0.00002  -0.00012  -0.00014  -0.00003
   D18        3.14159  -0.00000   0.00001  -0.00003  -0.00003   3.14156
   D19       -3.14147  -0.00000  -0.00001  -0.00012  -0.00012  -3.14159
   D20        0.00001   0.00000   0.00002  -0.00002  -0.00001   0.00000
   D21       -0.00017   0.00000   0.00003   0.00010   0.00013  -0.00004
   D22        3.14151   0.00000   0.00001   0.00001   0.00002   3.14153
   D23        3.14141   0.00000   0.00002   0.00009   0.00011   3.14152
   D24       -0.00009   0.00000  -0.00000   0.00000   0.00000  -0.00009
   D25        0.00002   0.00000  -0.00001   0.00010   0.00009   0.00011
   D26       -3.14152  -0.00000  -0.00001  -0.00005  -0.00006  -3.14158
   D27        3.14142   0.00001  -0.00001   0.00046   0.00045  -3.14131
   D28       -0.00012   0.00000  -0.00001   0.00031   0.00030   0.00018
   D29       -0.00024   0.00001  -0.00005   0.00087   0.00081   0.00057
   D30       -3.14138  -0.00001   0.00005  -0.00092  -0.00087   3.14094
   D31        3.14155   0.00001  -0.00005   0.00051   0.00045  -3.14119
   D32        0.00041  -0.00002   0.00005  -0.00128  -0.00123  -0.00082
   D33       -0.00019   0.00001   0.00001   0.00025   0.00025   0.00006
   D34        3.14145   0.00000   0.00001   0.00008   0.00009   3.14154
   D35       -3.14156   0.00000  -0.00003   0.00034   0.00031  -3.14125
   D36        0.00008   0.00000  -0.00003   0.00017   0.00014   0.00023
   D37        0.00008   0.00001  -0.00007   0.00094   0.00086   0.00095
   D38       -3.14102  -0.00002   0.00007  -0.00139  -0.00131   3.14086
   D39        3.14145   0.00001  -0.00003   0.00085   0.00081  -3.14092
   D40        0.00035  -0.00002   0.00010  -0.00147  -0.00136  -0.00101
   D41       -0.00008   0.00000   0.00002   0.00003   0.00005  -0.00003
   D42        3.14151   0.00000   0.00001   0.00008   0.00009  -3.14158
   D43       -3.14156  -0.00000  -0.00000  -0.00007  -0.00007   3.14156
   D44        0.00004  -0.00000  -0.00001  -0.00001  -0.00002   0.00001
   D45        0.00007  -0.00000  -0.00001  -0.00009  -0.00011  -0.00004
   D46       -3.14153  -0.00000  -0.00001  -0.00004  -0.00005  -3.14158
   D47        3.14157   0.00000   0.00001  -0.00000   0.00000   3.14157
   D48       -0.00002   0.00000   0.00000   0.00005   0.00006   0.00003
   D49        0.00001  -0.00000  -0.00001  -0.00001  -0.00002  -0.00001
   D50       -3.14158  -0.00000   0.00000  -0.00007  -0.00007   3.14154
   D51        3.14155   0.00000  -0.00001   0.00014   0.00013  -3.14150
   D52       -0.00005   0.00000   0.00000   0.00009   0.00009   0.00004
   D53        0.00012  -0.00000  -0.00001  -0.00008  -0.00009   0.00003
   D54       -3.14147  -0.00000  -0.00000  -0.00014  -0.00014   3.14157
   D55       -3.14153   0.00000  -0.00001   0.00009   0.00008  -3.14145
   D56        0.00007   0.00000  -0.00001   0.00003   0.00003   0.00010
         Item               Value     Threshold  Converged?
 Maximum Force            0.009181     0.000450     NO 
 RMS     Force            0.002160     0.000300     NO 
 Maximum Displacement     0.028427     0.001800     NO 
 RMS     Displacement     0.007198     0.001200     NO 
 Predicted change in Energy=-7.257137D-04
 GradGradGradGradGradGradGradGradGradGradGradGradGradGradGradGradGradGrad

                          Input orientation:                          
 ---------------------------------------------------------------------
 Center     Atomic      Atomic             Coordinates (Angstroms)
 Number     Number       Type             X           Y           Z
 ---------------------------------------------------------------------
      1          8           0       -2.410682   -0.000075    0.000125
      2          8           0       -2.451734   -2.209042   -0.000129
      3          8           0       -2.451852    2.208914    0.000016
      4          6           0        0.400284   -0.000013   -0.000044
      5          6           0        1.819431    0.000021   -0.000064
      6          6           0       -0.300788   -1.227586   -0.000006
      7          6           0       -0.300836    1.227559   -0.000104
      8          6           0        2.492330   -1.248242   -0.000203
      9          6           0        2.492291    1.248332    0.000020
     10          6           0        0.376393   -2.422475   -0.000188
     11          6           0        0.376296    2.422464   -0.000014
     12          6           0       -1.783578   -1.224127    0.000451
     13          6           0       -1.783614    1.224060   -0.000626
     14          6           0        1.787889   -2.428867   -0.000282
     15          6           0        1.787818    2.428922    0.000066
     16          1           0        3.581929   -1.258534   -0.000247
     17          1           0        3.581890    1.258638    0.000065
     18          1           0       -0.195684   -3.348710   -0.000167
     19          1           0       -0.195802    3.348678   -0.000115
     20          1           0        2.319520   -3.378102   -0.000375
     21          1           0        2.319397    3.378185    0.000118
 ---------------------------------------------------------------------
                    Distance matrix (angstroms):
                    1          2          3          4          5
     1  O    0.000000
     2  O    2.209348   0.000000
     3  O    2.209373   4.417956   0.000000
     4  C    2.810966   3.607467   3.607498   0.000000
     5  C    4.230113   4.808619   4.808645   1.419147   0.000000
     6  C    2.440991   2.364281   4.054209   1.413662   2.449970
     7  C    2.441012   4.054207   2.364303   1.413684   2.449976
     8  C    5.059392   5.036557   6.032982   2.436131   1.418082
     9  C    5.059413   6.032977   5.036593   2.436156   1.418104
    10  C    3.692670   2.836170   5.426669   2.422580   2.819725
    11  C    3.692688   5.426657   2.836199   2.422596   2.819729
    12  C    1.375341   1.190164   3.497480   2.503540   3.805288
    13  C    1.375399   3.497510   1.190160   2.503551   3.805286
[...]
 15062,0.00000166,-0.06887984,-0.22760597,-0.00000448,-0.00035688,-0.01
 855586,-0.00000078,-0.00393761,-0.06555135,-0.00000190,-0.01013406,-0.
 06986365,-0.00000223,-0.04800746,0.68021986,0.00000003,0.,0.00021239,-
 0.00000002,0.,-0.00039824,0.00000002,0.00000006,0.00011952,-0.00000137
 ,0.00000158,0.00071177,-0.00000111,-0.00000446,-0.06100870,0.00000009,
 -0.00000075,0.00660953,-0.00000013,-0.00000221,-0.00161180,-0.00000043
 ,-0.00000236,0.00229041,-0.00000644,0.00001885,0.13710233,-0.00678148,
 0.00072716,0.00000072,0.00134123,0.00727971,-0.00000006,0.00154259,-0.
 00115883,-0.00000006,0.04742829,0.03418468,0.00000031,-0.03001918,0.04
 178594,0.00000157,-0.17925174,0.07650987,0.00000288,0.00220158,-0.0260
 9931,-0.00000061,-0.02900660,-0.08059538,-0.00000214,-0.00264852,-0.02
 139201,-0.00000065,0.67381017,-0.00383046,0.00607988,0.,-0.00580236,-0
 .00779715,0.00000022,-0.00006513,0.00206505,0.,-0.00700546,-0.06521504
 ,-0.00000144,0.01870623,-0.02169979,-0.00000077,0.13578711,-0.33241691
 ,-0.00001086,-0.00695794,0.01434470,0.00000027,-0.02926164,0.03865504,
 0.00000131,0.00177237,0.01157150,0.00000038,0.01435263,0.75822535,0.00
 000038,0.00000008,0.00270333,-0.00000036,-0.00000076,0.00021812,-0.000
 00006,0.00000010,-0.00027894,-0.00000069,-0.00000225,0.00036289,0.0000
 0085,-0.00000091,-0.00289649,0.00000457,-0.00000890,-0.05683454,-0.000
 00014,0.00000041,0.00678623,-0.00000071,0.00000184,0.00395641,0.000000
 13,0.00000063,-0.00105990,-0.00000454,0.00001885,0.13966403,-0.0067815
 6,-0.00072764,0.00000062,0.00154253,0.00115882,-0.00000003,0.00134156,
 -0.00727938,-0.00000011,0.04742909,-0.03418020,-0.00000177,-0.03001661
 ,-0.04178618,-0.00000107,0.00220026,0.02609884,0.00000090,-0.17924377,
 -0.07650501,-0.00000263,-0.00264930,0.02139154,0.00000071,-0.02901085,
 0.08059264,0.00000279,0.01782270,-0.01138424,-0.00000050,0.67380993,0.
 00382987,0.00608016,0.00000025,0.00006508,0.00206513,0.00000006,0.0058
 0287,-0.00779723,-0.00000033,0.00700961,-0.06521595,-0.00000263,-0.018
 70643,-0.02170202,-0.00000040,0.00695746,0.01434599,0.00000009,-0.1357
 8191,-0.33242648,-0.00000698,-0.00177293,0.01157225,0.00000045,0.02925
 905,0.03865906,0.00000089,0.01138524,-0.00870906,-0.00000030,-0.014354
 64,0.75822597,0.00000060,0.00000019,0.00270333,-0.00000006,0.00000006,
 -0.00027894,-0.00000009,0.00000011,0.00021810,-0.00000010,-0.00000186,
 0.00036294,-0.00000032,-0.00000035,-0.00289651,0.00000033,0.00000014,0
 .00678619,-0.00000473,-0.00000888,-0.05683448,0.,0.00000020,-0.0010599
 0,0.00000108,0.00000039,0.00395641,0.00000024,-0.00000024,-0.00002088,
 -0.00000263,0.00001924,0.13966408,-0.17426818,0.05821798,0.00001961,-0
 .35051354,-0.34593449,0.00001540,-0.00178777,-0.02125179,0.00000050,-0
 .01389944,-0.02012949,0.00000031,0.00360826,-0.00219311,0.00000008,-0.
 20921343,-0.00340765,-0.00000363,-0.00640170,0.00004479,-0.00000032,0.
 00204952,-0.00415215,-0.00000023,-0.00147275,-0.00056100,0.,-0.0304902
 3,0.02034598,0.00000143,-0.00312104,0.00225497,0.00000009,0.73612580,0
 .06003851,-0.11982271,-0.00001036,-0.33183794,-0.54363013,0.00001554,0
 .00033931,0.02492733,0.,-0.03178750,0.01254233,-0.00000017,-0.00389033
 ,-0.00474478,-0.00000045,0.01295983,-0.10143497,-0.00000051,0.00745776
 ,0.00787175,0.00000016,-0.00203292,-0.00324080,-0.00000007,-0.00012408
 ,0.00209587,0.00000006,0.02533942,0.01084190,0.00000048,0.00098184,-0.
 00415050,0.00000004,0.28111455,0.81026989,0.00001691,-0.00001152,-0.04
 453942,0.00001347,0.00001631,-0.07375529,0.00000042,0.00000420,0.00547
 135,-0.00000074,0.00000151,-0.00716393,-0.00000008,-0.00000052,0.00706
 708,0.00000297,-0.00000082,-0.06937582,0.00000014,-0.00000024,0.002339
 35,0.,0.00000003,-0.00128607,0.00000001,0.00000013,0.00059634,0.000001
 19,-0.00000004,-0.00000347,0.00000012,-0.00000041,-0.00041478,-0.00002
 763,-0.00000463,0.19451439,-0.17426036,-0.05821413,0.00001589,-0.00178
 875,0.02125035,0.00000118,-0.35054641,0.34594785,0.00001485,-0.0139016
 5,0.02012853,0.00000109,0.00360795,0.00219351,0.00000024,-0.00640125,-
 0.00004575,-0.00000056,-0.20921553,0.00340414,-0.00000279,-0.00147280,
 0.00056079,0.00000004,0.00204927,0.00415251,0.00000005,-0.00312095,-0.
 00225482,-0.00000004,-0.03048901,-0.02034781,0.00000003,0.03986295,-0.
 03015734,-0.00000692,0.73615406,-0.06003493,-0.11981335,0.00000679,-0.
 00034051,0.02492872,0.00000043,0.33185079,-0.54360512,-0.00001683,0.03
 178658,0.01254429,0.00000113,0.00389057,-0.00474458,-0.00000017,-0.007
 45813,0.00787120,0.00000017,-0.01296343,-0.10143500,-0.00000220,0.0001
 2394,0.00209582,0.00000003,0.00203312,-0.00324055,-0.00000008,-0.00098
 188,-0.00415054,-0.00000027,-0.02534104,0.01084000,0.00000016,0.030162
 96,-0.07879722,-0.00000341,-0.28113010,0.81023486,0.00001359,0.0000064
 4,-0.04453996,0.00000049,-0.00000280,0.00547138,0.00001327,-0.00001712
 ,-0.07375463,0.00000155,-0.00000012,-0.00716403,0.00000009,-0.00000033
 ,0.00706706,-0.00000015,0.00000047,0.00233933,0.00000075,-0.00000186,-
 0.06937541,0.00000008,-0.00000008,0.00059633,0.,-0.00000005,-0.0012860
 6,0.,0.00000029,-0.00041479,-0.00000087,0.00000013,-0.00000344,-0.0000
 0584,0.00000031,-0.01673065,-0.00002279,0.00001482,0.19451397,-0.00035
 295,0.00239228,-0.00000005,-0.00068694,-0.00284965,0.00000015,-0.00051
 344,0.00135847,0.00000002,-0.03237389,-0.04307689,-0.00000118,0.045655
 11,-0.03901514,-0.00000147,-0.03205682,0.07673657,0.00000295,-0.003231
 28,0.02138486,0.00000072,-0.19944392,-0.07685862,-0.00000136,0.0004923
 3,0.03061502,0.00000099,-0.30036373,-0.03485425,0.00000116,-0.01946479
 ,-0.01177894,-0.00000021,0.00832092,0.00581765,-0.00000008,-0.00052719
 ,-0.00193643,0.00000002,0.65681696,0.00256775,0.00225563,-0.00000012,-
 0.00196463,0.00061085,0.00000003,-0.00017491,0.00108700,0.00000003,-0.
 01899049,-0.01978731,-0.00000050,0.00502826,-0.06313520,-0.00000215,0.
 02533954,0.03475361,0.00000144,-0.00200170,0.00872508,0.00000029,-0.14
 841614,-0.32797188,-0.00000714,0.00647214,0.01357333,0.00000019,0.0395
 0131,-0.12960709,-0.00000270,-0.00868386,-0.00580695,-0.00000008,0.006
 22865,-0.00707980,-0.00000059,-0.00066283,-0.00148480,0.00000003,-0.01
 361998,0.76249479,-0.00000022,0.00000019,-0.00090488,-0.00000009,-0.00
 000004,-0.00111661,0.,0.00000004,0.00035354,-0.00000038,-0.00000023,-0
 .00302948,-0.00000014,-0.00000171,0.00384555,0.00000082,0.00000039,0.0
 0569414,-0.00000012,0.00000018,-0.00148133,-0.00000334,-0.00000760,-0.
 05972493,0.00000025,-0.00000007,0.00607504,0.00000407,-0.00000202,-0.0
 6207848,-0.00000011,-0.00000011,0.00043571,0.00000064,-0.00000032,0.00
 945064,0.,-0.00000001,-0.00075963,-0.00000557,0.00001932,0.13255637,-0
 .00035271,-0.00239245,-0.00000025,-0.00051338,-0.00135856,0.,-0.000687
 21,0.00284964,0.00000018,-0.03237602,0.04307629,0.00000139,0.04565360,
 0.03901914,0.00000107,-0.00323054,-0.02138534,-0.00000049,-0.03205315,
 -0.07673884,-0.00000190,0.00049377,-0.03061553,-0.00000096,-0.19945283
 ,0.07686447,0.00000398,-0.01946554,0.01177842,0.00000054,-0.30036199,0
 .03484755,0.00000215,-0.00052735,0.00193654,0.00000008,0.00832156,-0.0
 0581708,-0.00000023,0.02241210,0.01101988,0.00000015,0.65681444,-0.002
 56786,0.00225545,0.00000027,0.00017484,0.00108696,-0.00000001,0.001964
 60,0.00061098,0.00000009,0.01898985,-0.01978474,-0.00000056,-0.0050239
 5,-0.06313383,-0.00000217,0.00200122,0.00872428,0.00000030,-0.02534188
 ,0.03474955,0.00000028,-0.00647267,0.01357194,0.00000027,0.14842180,-0
 .32796472,-0.00001088,0.00868331,-0.00580615,-0.00000032,-0.03950789,-
 0.12960723,-0.00000159,0.00066290,-0.00148473,-0.00000004,-0.00622823,
 -0.00708021,-0.00000031,-0.01101879,-0.00622497,-0.00000008,0.01361512
 ,0.76249755,-0.00000032,-0.00000006,-0.00090488,0.00000003,0.,0.000353
 55,0.00000011,0.00000005,-0.00111662,0.00000068,-0.00000074,-0.0030295
 1,-0.00000032,-0.00000242,0.00384555,0.,0.00000043,-0.00148132,-0.0000
 0065,0.00000151,0.00569422,-0.00000017,0.00000047,0.00607501,0.0000063
 7,-0.00001057,-0.05972477,0.00000040,-0.00000027,0.00043571,0.00000044
 ,-0.00000229,-0.06207864,0.,-0.00000001,-0.00075963,0.00000004,-0.0000
 0061,0.00945066,-0.00000051,-0.00000029,-0.00002268,-0.00000347,0.0000
 2212,0.13255623,-0.00008785,-0.00007731,0.00000001,-0.00004422,0.00006
 790,0.00000001,-0.00022004,0.00006539,0.,0.00058856,0.00273767,0.00000
 014,-0.01128943,-0.00259875,0.00000005,0.00101118,-0.00008214,-0.00000
 004,-0.00059563,-0.00065239,-0.00000002,-0.33552425,0.00201828,0.00000
 248,0.00083376,-0.00146030,-0.00000009,0.00027808,-0.00301267,0.,0.000
 15119,0.00008196,0.,-0.00025618,-0.00000661,-0.00000002,0.00023637,0.0
 0023772,0.,-0.01045391,0.00346984,0.00000022,-0.00004195,0.00028919,0.
 00000001,0.35513395,-0.00005101,0.00031325,0.,-0.00005495,0.00022093,-
 0.00000001,0.00026069,-0.00000254,0.,0.00190700,-0.00469566,-0.0000002
 8,0.02728924,0.00408936,-0.00000027,-0.00007276,-0.00120193,-0.0000000
 7,0.00133661,0.00032618,-0.00000002,0.00255302,-0.05873845,-0.00000060
 ,0.00135684,0.00132448,0.00000013,-0.00260356,-0.00462770,-0.00000036,
 0.00036715,0.00028810,0.00000001,0.00007145,-0.00032372,0.00000006,-0.
 00012978,-0.00058613,0.,-0.02757572,0.00537417,0.00000025,-0.00066930,
 0.00024154,0.00000002,-0.00199991,0.05792463,0.,0.00000003,0.00009024,
 0.,0.00000002,0.00023044,0.,0.00000002,-0.00015410,0.00000005,-0.00000
 036,0.00547253,0.00000103,0.,0.00369485,0.,-0.00000004,-0.00106690,0.0
 0000010,0.,0.00024841,0.00000239,-0.00000071,-0.03879219,0.00000001,0.
 00000016,-0.00303499,-0.00000013,-0.00000029,0.00879815,0.,0.00000001,
 -0.00017062,-0.00000004,0.,-0.00141496,-0.00000002,-0.00000010,0.00033
 512,-0.00000053,0.00000011,0.00522965,-0.00000002,0.00000001,-0.000069
 50,-0.00000274,0.00000099,0.02540845,-0.00008786,0.00007729,0.00000002
 ,-0.00022003,-0.00006540,0.00000001,-0.00004422,-0.00006791,0.,0.00058
 873,-0.00273745,-0.00000005,-0.01128851,0.00259816,0.00000019,-0.00059
 561,0.00065235,0.00000001,0.00101118,0.00008221,-0.00000003,0.00083376
 ,0.00146028,0.00000002,-0.33552401,-0.00202849,0.00000183,0.00015120,-
 0.00008196,0.,0.00027786,0.00301286,0.00000018,0.00023638,-0.00023769,
 -0.00000002,-0.00025618,0.00000661,-0.00000001,-0.00004197,-0.00028920
 ,0.,-0.01045480,-0.00347044,-0.00000003,0.00021024,-0.00094019,-0.0000
 0004,0.35513373,0.00005099,0.00031325,0.,-0.00026070,-0.00000256,0.000
 00003,0.00005494,0.00022093,0.,-0.00190679,-0.00469584,-0.00000035,-0.
 02728984,0.00408842,0.00000022,-0.00133665,0.00032615,0.,0.00007285,-0
 .00120192,0.00000006,-0.00135686,0.00132448,0.00000016,-0.00256322,-0.
 05873865,-0.00000067,-0.00036715,0.00028808,0.00000002,0.00260375,-0.0
 0462749,-0.00000049,0.00012982,-0.00058612,-0.00000006,-0.00007145,-0.
 00032372,0.00000003,0.00066929,0.00024155,0.,0.02757511,0.00537509,-0.
 00000016,0.00094022,-0.00063848,-0.00000003,0.00201091,0.05792481,0.,0
 .,0.00009024,-0.00000002,-0.00000001,-0.00015410,-0.00000001,0.,0.0002
 3045,-0.00000004,-0.00000028,0.00547251,-0.00000075,0.00000009,0.00369
 488,0.,0.,0.00024839,-0.00000002,-0.00000002,-0.00106690,-0.00000007,0
 .00000008,-0.00303497,0.00000172,-0.00000066,-0.03879227,-0.00000004,0
 .00000003,-0.00017062,0.00000007,-0.00000052,0.00879817,0.00000001,0.0
 0000003,0.00033512,-0.00000002,0.00000004,-0.00141497,0.00000006,0.000
 00002,-0.00006950,0.00000111,-0.00000004,0.00522968,0.00000003,-0.0000
 0002,0.00027542,-0.00000203,0.00000105,0.02540847,0.00012302,-0.001983
 60,-0.00000018,-0.00169204,-0.00072171,0.00000005,-0.00014539,-0.00036
 347,0.,-0.00210199,0.00347301,0.00000025,-0.00045960,0.00115453,0.,0.0
 1287453,0.01269476,0.00000030,0.00068902,0.00011523,-0.00000002,-0.005
 37912,0.00090714,0.00000014,-0.00002048,-0.00059266,-0.00000002,-0.133
 31290,-0.12624240,-0.00000297,0.00025390,0.00049920,0.,0.00027276,0.00
 265786,0.00000014,0.00088083,0.00073659,-0.00000002,-0.00829887,-0.025
 70341,-0.00000074,-0.00043376,0.00026429,0.00000001,-0.00053570,-0.001
 23509,-0.00000002,0.00003398,0.00006266,0.,0.13647391,0.00021153,0.001
 20253,0.00000007,0.00004707,0.00215385,-0.00000001,0.00011636,0.000226
 67,0.,0.00385958,-0.00269509,-0.00000041,0.00058687,0.00011460,0.00000
 005,-0.01567677,-0.01878263,-0.00000047,-0.00115069,-0.00049241,0.,0.0
 0124264,0.00122896,-0.00000016,-0.00012561,0.00012267,0.00000002,-0.12
 401446,-0.26570573,-0.00000570,0.00038811,-0.00040323,0.,-0.00199092,-
 0.00286560,0.00000009,-0.00052757,-0.00055042,-0.00000001,0.00326309,0
 .00604970,0.00000005,0.00013135,0.00008380,0.,0.00028070,0.00019836,0.
 00000001,-0.00002417,-0.00002626,0.,0.13385834,0.27983425,0.00000007,0
 .00000006,0.00025643,0.00000006,0.00000019,0.00011404,0.00000001,0.000
 00002,-0.00005630,0.00000019,-0.00000026,0.00847612,-0.00000007,0.0000
 0003,-0.00111784,-0.00000021,-0.00000125,0.00493150,0.00000002,-0.0000
 0003,0.00064174,0.00000014,-0.00000024,0.00606411,0.,0.00000005,-0.000
 80402,-0.00000317,-0.00000521,-0.04137673,-0.00000001,0.,-0.00073685,-
 0.00000039,-0.00000002,-0.00521287,-0.00000006,-0.00000008,0.00033471,
 0.00000037,0.00000027,0.00444336,0.00000001,-0.00000001,0.00018102,0.0
 0000001,0.00000002,-0.00031762,0.,0.,0.00002497,0.00000308,0.00000634,
 0.02721305,0.00012294,0.00198353,-0.00000008,-0.00014540,0.00036345,0.
 00000001,-0.00169202,0.00072157,0.00000006,-0.00210170,-0.00347299,0.,
 -0.00045953,-0.00115455,-0.00000007,0.00068898,-0.00011518,-0.00000004
 ,0.01287438,-0.01269361,-0.00000052,-0.00002050,0.00059265,0.00000002,
 -0.00537906,-0.00090739,0.00000002,0.00025394,-0.00049918,-0.00000002,
 -0.13332218,0.12624724,0.00000434,0.00088084,-0.00073652,-0.00000004,0
 .00027281,-0.00265775,0.00000007,-0.00043374,-0.00026431,0.,-0.0082997
 4,0.02570292,0.00000079,0.00003398,-0.00006266,0.,-0.00053574,0.001235
 07,0.00000007,0.00007842,-0.00008798,0.,0.13648388,-0.00021158,0.00120
 258,-0.00000002,-0.00011637,0.00022668,0.,-0.00004725,0.00215385,0.000
 00009,-0.00385957,-0.00269533,-0.00000022,-0.00058688,0.00011453,0.000
 00002,0.00115073,-0.00049238,-0.00000009,0.01567797,-0.01878247,-0.000
 00094,0.00012560,0.00012270,0.00000003,-0.00124288,0.00122887,-0.00000
 011,-0.00038809,-0.00040326,0.00000002,0.12401933,-0.26569643,-0.00000
 706,0.00052763,-0.00055041,-0.00000004,0.00199104,-0.00286561,0.000000
 17,-0.00013137,0.00008379,0.,-0.00326362,0.00605052,0.00000004,0.00002
 417,-0.00002626,0.,-0.00028072,0.00019839,0.00000002,0.00008798,-0.000
 10662,0.,-0.13386360,0.27982425,0.00000003,0.00000009,0.00025643,0.,0.
 00000002,-0.00005630,-0.00000001,0.,0.00011406,-0.00000003,-0.00000039
 ,0.00847612,-0.00000011,0.,-0.00111783,0.00000007,-0.00000007,0.000641
 74,0.00000077,-0.00000033,0.00493149,0.,0.00000002,-0.00080402,0.00000
 001,-0.00000006,0.00606407,-0.00000003,0.00000002,-0.00073685,0.000003
 91,-0.00000743,-0.04137669,0.00000002,-0.00000001,0.00033471,-0.000000
 20,0.00000013,-0.00521289,0.,0.,0.00018102,0.00000016,-0.00000011,0.00
 444338,0.,0.,0.00002497,0.,0.00000002,-0.00031762,0.,0.,-0.00015056,-0
 .00000459,0.00000800,0.02721301,-0.00072756,0.00070660,0.00000005,-0.0
 0032155,-0.00034082,0.00000003,0.00001741,0.00024981,0.,-0.00050294,-0
 .00113359,-0.00000004,-0.00149694,-0.00352370,0.00000003,-0.00582995,-
 0.00113529,-0.00000005,0.00012489,0.00042940,0.,0.01191854,-0.01578472
 ,-0.00000057,0.00071476,-0.00016390,0.,-0.01007205,0.02833331,0.000000
 96,-0.00029684,-0.00017645,0.,0.00085782,0.00147156,0.,-0.00026359,-0.
 00069609,0.00000003,-0.12563156,0.12080136,0.00000457,0.00017760,-0.00
 034271,-0.00000002,0.00059173,0.00026432,-0.00000006,-0.00001988,0.000
 01139,0.,0.00070325,-0.00037766,-0.00000004,-0.00000379,0.00000981,0.,
 0.13001221,-0.00001642,0.00003779,0.00000003,0.00014457,0.00003550,0.,
 0.00009476,-0.00006552,0.,-0.00068732,-0.00002767,0.,-0.00394109,-0.00
 262925,-0.00000029,-0.00072923,0.00161050,-0.00000011,0.00018545,0.000
 33430,0.00000006,0.01540903,-0.01798638,-0.00000080,0.00109291,-0.0002
 9496,-0.00000003,-0.00251589,0.00415022,0.00000005,-0.00036731,-0.0000
 8330,0.,-0.00031631,0.00013438,-0.00000003,-0.00017525,0.00002799,0.,0
 .12040627,-0.27361189,-0.00000820,-0.00007224,-0.00053965,0.00000001,-
 0.00036547,0.00054182,0.00000016,-0.00004252,-0.00000193,0.,0.00033795
 ,0.00042042,0.00000010,0.00000723,-0.00000781,0.,-0.12852588,0.2880549
 7,-0.00000003,-0.00000001,-0.00033344,0.00000002,0.00000003,-0.0000167
 2,0.,-0.00000002,-0.00000921,0.,0.00000002,-0.00087877,-0.00000003,-0.
 00000034,0.00926910,0.00000011,-0.00000009,0.00601533,0.,0.00000003,-0
 .00085715,0.00000038,-0.00000051,0.00380384,0.00000001,0.,0.00017912,0
 .00000005,-0.00000025,0.00281098,0.,0.,0.00013583,-0.00000005,-0.00000
 005,0.00045217,0.00000002,0.00000003,0.00009572,0.00000451,-0.00000819
 ,-0.03834383,0.,0.00000001,-0.00073367,-0.00000005,0.00000016,-0.00497
 066,0.,0.,0.00018332,-0.00000003,0.00000010,-0.00302324,0.,0.,0.000114
 99,-0.00000489,0.00000909,0.02612040,-0.00072752,-0.00070664,0.,0.0000
 1742,-0.00024981,0.,-0.00032156,0.00034081,0.00000003,-0.00050300,0.00
 113357,0.00000004,-0.00149723,0.00352374,0.00000021,0.00012492,-0.0004
 2941,-0.00000003,-0.00583002,0.00113502,-0.00000002,0.00071480,0.00016
 394,0.,0.01191853,0.01578586,0.00000045,-0.00029686,0.00017644,0.,-0.0
 1007109,-0.02833386,-0.00000088,-0.00026364,0.00069608,0.00000007,0.00
 085786,-0.00147152,-0.00000005,0.00017758,0.00034274,0.,-0.12562208,-0
 .12079562,-0.00000338,-0.00001989,-0.00001139,0.,0.00059172,-0.0002643
 2,-0.00000006,-0.00000379,-0.00000981,0.,0.00070325,0.00037766,0.,0.00
 004845,0.00007674,0.,0.13000214,0.00001639,0.00003777,0.,-0.00009476,-
 0.00006553,0.,-0.00014458,0.00003551,0.,0.00068730,-0.00002761,0.00000
 006,0.00394113,-0.00262894,-0.00000046,-0.00018546,0.00033428,0.000000
 02,0.00072895,0.00161056,-0.00000016,-0.00109287,-0.00029500,0.,-0.015
 40787,-0.01798633,-0.00000062,0.00036730,-0.00008328,0.,0.00251535,0.0
 0414921,0.00000003,0.00017524,0.00002803,0.,0.00031633,0.00013433,0.,0
 .00007227,-0.00053963,0.,-0.12040056,-0.27362143,-0.00000723,0.0000425
 2,-0.00000193,0.,0.00036547,0.00054182,0.00000019,-0.00000723,-0.00000
 781,0.,-0.00033794,0.00042042,0.00000011,-0.00007674,-0.00009953,0.,0.
 12851978,0.28806509,-0.00000003,0.00000002,-0.00033344,0.,0.,-0.000009
 21,0.,-0.00000002,-0.00001673,0.00000004,0.00000005,-0.00087877,0.0000
 0020,-0.00000038,0.00926912,-0.00000003,0.00000004,-0.00085714,0.00000
 013,-0.00000018,0.00601530,-0.00000005,-0.00000002,0.00017912,-0.00000
 056,-0.00000086,0.00380384,0.,0.,0.00013583,0.00000020,0.00000027,0.00
 281096,0.00000003,-0.00000003,0.00009572,-0.00000002,0.00000002,0.0004
 5218,0.,0.,-0.00073367,-0.00000347,-0.00000725,-0.03834378,0.,0.,0.000
 18332,-0.00000002,0.00000018,-0.00497068,0.,0.,0.00011499,-0.00000003,
 0.00000009,-0.00302322,0.,0.,-0.00001411,0.00000360,0.00000807,0.02612
 038\\0.00001597,-0.00000286,0.00000834,-0.00001884,-0.00003666,0.00000
 660,-0.00001871,0.00003538,0.00000372,-0.00001022,-0.00000050,0.000000
 68,-0.00002102,-0.00000030,-0.00000036,0.00001127,0.00002206,0.0000048
 5,0.00001102,-0.00002172,0.00000313,0.00001138,0.00000770,-0.00000015,
 0.00001132,-0.00000701,-0.00000022,-0.00000560,-0.00001129,0.00000084,
 -0.00000629,0.00001093,0.00000064,0.00000424,0.00004502,-0.00001724,0.
 00000615,-0.00004051,-0.00001029,0.00000304,-0.00001117,-0.00000042,0.
 00000365,0.00001089,-0.00000020,-0.00000113,-0.00000034,0.00000014,-0.
 00000112,0.00000025,0.00000007,0.00000304,-0.00000018,0.00000002,0.000
 00313,0.00000026,-0.00000007,-0.00000059,0.00000145,-0.00000009,-0.000
 00068,-0.00000140,0.00000001\\\@


 WE ARE PERHAPS NOT FAR REMOVED FROM THE TIME WHEN WE SHALL BE ABLE TO SUBMIT
 THE BULK OF CHEMICAL PHENOMENA TO CALCULATION.

            -- JOSEPH LOUIS GAY-LUSSAC
               MEMOIRES DE LA SOCIETE D'ARCUEIL, 2, 207 (1808)
 Job cpu time:       0 days  4 hours 39 minutes 16.7 seconds.
 Elapsed time:       0 days  0 hours 17 minutes 38.9 seconds.
 File lengths (MBytes):  RWF=    272 Int=      0 D2E=      0 Chk=     12 Scr=      1
 Normal termination of Gaussian 16 at Sun Sep 21 00:40:48 2025.
