 Entering Gaussian System, Link 0=g16
 Input=OLAC0067.gjf
 Output=OLAC0067.log
 Initial command:
 /usr/local/g16/l1.exe "/dados_01/scratch/Gau-2588807.inp" -scrdir="/dados_01/scratch/"
 Entering Link 1 = /usr/local/g16/l1.exe PID=   2588808.
  
 Copyright (c) 1988-2017, Gaussian, Inc.  All Rights Reserved.
  
 This is part of the Gaussian(R) 16 program.  It is based on
 the Gaussian(R) 09 system (copyright 2009, Gaussian, Inc.),
 the Gaussian(R) 03 system (copyright 2003, Gaussian, Inc.),
 the Gaussian(R) 98 system (copyright 1998, Gaussian, Inc.),
 the Gaussian(R) 94 system (copyright 1995, Gaussian, Inc.),
 the Gaussian 92(TM) system (copyright 1992, Gaussian, Inc.),
 the Gaussian 90(TM) system (copyright 1990, Gaussian, Inc.),
 the Gaussian 88(TM) system (copyright 1988, Gaussian, Inc.),
 the Gaussian 86(TM) system (copyright 1986, Carnegie Mellon
 University), and the Gaussian 82(TM) system (copyright 1983,
 Carnegie Mellon University). Gaussian is a federally registered
 trademark of Gaussian, Inc.
  
 This software contains proprietary and confidential information,
 including trade secrets, belonging to Gaussian, Inc.
  
 This software is provided under written license and may be
 used, copied, transmitted, or stored only in accord with that
 written license.
  
 The following legend is applicable only to US Government
 contracts under FAR:
  
                    RESTRICTED RIGHTS LEGEND
  
 Use, reproduction and disclosure by the US Government is
 subject to restrictions as set forth in subparagraphs (a)
 and (c) of the Commercial Computer Software - Restricted
 Rights clause in FAR 52.227-19.
  
 Gaussian, Inc.
 340 Quinnipiac St., Bldg. 40, Wallingford CT 06492
  
  
 ---------------------------------------------------------------
 Warning -- This program may not be used in any manner that
 competes with the business of Gaussian, Inc. or will provide
 assistance to any competitor of Gaussian, Inc.  The licensee
 of this program is prohibited from giving any competitor of
 Gaussian, Inc. access to this program.  By using this program,
 the user acknowledges that Gaussian, Inc. is engaged in the
 business of creating and licensing software in the field of
 computational chemistry and represents and warrants to the
 licensee that it is not a competitor of Gaussian, Inc. and that
 it will not use this program in any manner prohibited above.
 ---------------------------------------------------------------
  

 Cite this work as:
 Gaussian 16, Revision B.01,
 M. J. Frisch, G. W. Trucks, H. B. Schlegel, G. E. Scuseria, 
 M. A. Robb, J. R. Cheeseman, G. Scalmani, V. Barone, 
 G. A. Petersson, H. Nakatsuji, X. Li, M. Caricato, A. V. Marenich, 
 J. Bloino, B. G. Janesko, R. Gomperts, B. Mennucci, H. P. Hratchian, 
 J. V. Ortiz, A. F. Izmaylov, J. L. Sonnenberg, D. Williams-Young, 
 F. Ding, F. Lipparini, F. Egidi, J. Goings, B. Peng, A. Petrone, 
 T. Henderson, D. Ranasinghe, V. G. Zakrzewski, J. Gao, N. Rega, 
 G. Zheng, W. Liang, M. Hada, M. Ehara, K. Toyota, R. Fukuda, 
 J. Hasegawa, M. Ishida, T. Nakajima, Y. Honda, O. Kitao, H. Nakai, 
 T. Vreven, K. Throssell, J. A. Montgomery, Jr., J. E. Peralta, 
 F. Ogliaro, M. J. Bearpark, J. J. Heyd, E. N. Brothers, K. N. Kudin, 
 V. N. Staroverov, T. A. Keith, R. Kobayashi, J. Normand, 
 K. Raghavachari, A. P. Rendell, J. C. Burant, S. S. Iyengar, 
 J. Tomasi, M. Cossi, J. M. Millam, M. Klene, C. Adamo, R. Cammi, 
 J. W. Ochterski, R. L. Martin, K. Morokuma, O. Farkas, 
 J. B. Foresman, and D. J. Fox, Gaussian, Inc., Wallingford CT, 2016.
 
 ******************************************
 Gaussian 16:  ES64L-G16RevB.01 20-Dec-2017
                 9-Oct-2025 
 ******************************************
 %nprocs=16
 Will use up to   16 processors via shared memory.
 %mem=40GB
 %chk=OLAC0067.chk
 ----------------------------------------------------------------------
 # opt freq=noraman M08HX/6-311++G** scf=xqc Empiricaldispersion=pfd In
 t(Grid=ultraFine)
 ----------------------------------------------------------------------
 1/18=20,19=15,26=4,38=1/1,3;
 2/9=110,12=2,17=6,18=5,40=1/2;
 3/5=4,6=6,7=1111,11=2,25=1,30=1,71=1,74=-74,75=-5,124=11/1,2,3;
 4//1;
 5/5=2,8=3,13=1,38=5/2,8;
 6/7=2,8=2,9=2,10=2,28=1/1;
 7//1,2,3,16;
 1/18=20,19=15,26=4/3(2);
 2/9=110/2;
 99//99;
 2/9=110/2;
 3/5=4,6=6,7=1111,11=2,25=1,30=1,71=1,74=-74,75=-5,124=11/1,2,3;
 4/5=5,16=3,69=1/1;
 5/5=2,8=3,13=1,38=5/2,8;
 7//1,2,3,16;
 1/18=20,19=15,26=4/3(-5);
 2/9=110/2;
 6/7=2,8=2,9=2,10=2,19=2,28=1/1;
 99/9=1/99;
 --------
 OLAC0067
 --------
 Symbolic Z-matrix:
 Charge =  0 Multiplicity = 1
 O                     7.2438    0.3284   -0.6585 
 O                     6.1472   -0.1564    1.2753 
 C                    -3.1503   -1.5706   -0.3069 
 C                    -4.4422   -1.3743    0.4892 
 C                    -2.0942   -2.3907    0.4411 
 C                    -0.0012    1.9226   -0.4319 
 C                     1.2016    1.36      0.3282 
 C                    -5.5251   -0.6197   -0.2917 
 C                    -1.2513    1.9525    0.4529 
 C                     2.4597    1.359    -0.5429 
 C                    -0.8105   -2.6942   -0.3381 
 C                    -5.1402    0.788    -0.7626 
 C                    -2.4879    2.4841   -0.2779 
 C                     3.6695    0.8265    0.2315 
 C                     0.2198   -3.5599    0.3898 
 C                    -4.8401    1.7249    0.3718 
 C                    -3.7267    2.4473    0.5696 
 C                     4.9376    0.7868   -0.6213 
 C                     1.4531   -3.8707   -0.4432 
 C                     6.1374    0.2564    0.1255 
 H                    -2.712    -0.6036   -0.5699 
 H                    -3.3866   -2.0763   -1.2513 
 H                    -4.8429   -2.3555    0.7724 
 H                    -4.2198   -0.8479    1.4249 
 H                    -1.8271   -1.8633    1.3656 
 H                    -2.5439   -3.3435    0.7481 
 H                     0.2219    2.9375   -0.7821 
 H                    -0.1945    1.3077   -1.3192 
 H                     1.3799    1.9612    1.228 
 H                     0.9826    0.3378    0.6603 
 H                    -6.4239   -0.5581    0.3354 
 H                    -5.8056   -1.2134   -1.1708 
 H                    -1.0555    2.5759    1.3349 
 H                    -1.4527    0.9403    0.8253 
 H                     2.6694    2.3772   -0.8922 
 H                     2.2904    0.7391   -1.4316 
 H                    -1.0849   -3.1921   -1.2768 
 H                    -0.3395   -1.744    -0.62 
 H                    -5.9916    1.2045   -1.3158 
 H                    -4.3225    0.7258   -1.4845 
 H                    -2.6205    1.9282   -1.2104 
 H                    -2.3101    3.526    -0.5721 
 H                     3.4503   -0.1828    0.6026 
 H                     3.8442    1.4521    1.1159 
 H                     0.5302   -3.0521    1.3107 
 H                    -0.25     -4.5038    0.6907 
 H                    -5.6389    1.841     1.1029 
 H                    -3.7034    3.0866    1.451 
 H                     4.7734    0.1451   -1.4942 
 H                     5.173     1.8      -0.9668 
 H                     1.9701   -2.9499   -0.7317 
 H                     2.152    -4.4899    0.1278 
 H                     1.1825   -4.4129   -1.3546 
 H                     8.0434    0.0024   -0.1931 
 

 GradGradGradGradGradGradGradGradGradGradGradGradGradGradGradGradGradGrad
 Berny optimization.
 Initialization pass.
                           ----------------------------
                           !    Initial Parameters    !
                           ! (Angstroms and Degrees)  !
 --------------------------                            --------------------------
 ! Name  Definition              Value          Derivative Info.                !
 --------------------------------------------------------------------------------
 ! R1    R(1,20)                 1.3579         estimate D2E/DX2                !
 ! R2    R(1,54)                 0.9809         estimate D2E/DX2                !
 ! R3    R(2,20)                 1.2217         estimate D2E/DX2                !
 ! R4    R(3,4)                  1.5301         estimate D2E/DX2                !
 ! R5    R(3,5)                  1.5321         estimate D2E/DX2                !
 ! R6    R(3,21)                 1.0938         estimate D2E/DX2                !
 ! R7    R(3,22)                 1.097          estimate D2E/DX2                !
 ! R8    R(4,8)                  1.5336         estimate D2E/DX2                !
 ! R9    R(4,23)                 1.097          estimate D2E/DX2                !
 ! R10   R(4,24)                 1.0964         estimate D2E/DX2                !
 ! R11   R(5,11)                 1.532          estimate D2E/DX2                !
 ! R12   R(5,25)                 1.0974         estimate D2E/DX2                !
 ! R13   R(5,26)                 1.0974         estimate D2E/DX2                !
 ! R14   R(6,7)                  1.53           estimate D2E/DX2                !
 ! R15   R(6,9)                  1.5318         estimate D2E/DX2                !
 ! R16   R(6,27)                 1.0966         estimate D2E/DX2                !
 ! R17   R(6,28)                 1.0967         estimate D2E/DX2                !
 ! R18   R(7,10)                 1.5302         estimate D2E/DX2                !
 ! R19   R(7,29)                 1.0968         estimate D2E/DX2                !
 ! R20   R(7,30)                 1.0969         estimate D2E/DX2                !
 ! R21   R(8,12)                 1.5335         estimate D2E/DX2                !
 ! R22   R(8,31)                 1.0977         estimate D2E/DX2                !
 ! R23   R(8,32)                 1.0973         estimate D2E/DX2                !
 ! R24   R(9,13)                 1.5316         estimate D2E/DX2                !
 ! R25   R(9,33)                 1.0977         estimate D2E/DX2                !
 ! R26   R(9,34)                 1.0972         estimate D2E/DX2                !
 ! R27   R(10,14)                1.5319         estimate D2E/DX2                !
 ! R28   R(10,35)                1.0967         estimate D2E/DX2                !
 ! R29   R(10,36)                1.0967         estimate D2E/DX2                !
 ! R30   R(11,15)                1.53           estimate D2E/DX2                !
 ! R31   R(11,37)                1.0974         estimate D2E/DX2                !
 ! R32   R(11,38)                1.0974         estimate D2E/DX2                !
 ! R33   R(12,16)                1.5016         estimate D2E/DX2                !
 ! R34   R(12,39)                1.0974         estimate D2E/DX2                !
 ! R35   R(12,40)                1.0925         estimate D2E/DX2                !
 ! R36   R(13,17)                1.5014         estimate D2E/DX2                !
 ! R37   R(13,41)                1.0937         estimate D2E/DX2                !
 ! R38   R(13,42)                1.0971         estimate D2E/DX2                !
 ! R39   R(14,18)                1.5287         estimate D2E/DX2                !
 ! R40   R(14,43)                1.0975         estimate D2E/DX2                !
 ! R41   R(14,44)                1.0973         estimate D2E/DX2                !
 ! R42   R(15,19)                1.5204         estimate D2E/DX2                !
 ! R43   R(15,45)                1.0965         estimate D2E/DX2                !
 ! R44   R(15,46)                1.0964         estimate D2E/DX2                !
 ! R45   R(16,17)                1.3419         estimate D2E/DX2                !
 ! R46   R(16,47)                1.0891         estimate D2E/DX2                !
 ! R47   R(17,48)                1.0891         estimate D2E/DX2                !
 ! R48   R(18,20)                1.5095         estimate D2E/DX2                !
 ! R49   R(18,49)                1.0958         estimate D2E/DX2                !
 ! R50   R(18,50)                1.0961         estimate D2E/DX2                !
 ! R51   R(19,51)                1.0947         estimate D2E/DX2                !
 ! R52   R(19,52)                1.0945         estimate D2E/DX2                !
 ! R53   R(19,53)                1.0945         estimate D2E/DX2                !
 ! A1    A(20,1,54)            111.8768         estimate D2E/DX2                !
 ! A2    A(4,3,5)              113.3686         estimate D2E/DX2                !
 ! A3    A(4,3,21)             110.488          estimate D2E/DX2                !
 ! A4    A(4,3,22)             108.9759         estimate D2E/DX2                !
 ! A5    A(5,3,21)             108.3244         estimate D2E/DX2                !
 ! A6    A(5,3,22)             108.7851         estimate D2E/DX2                !
 ! A7    A(21,3,22)            106.67           estimate D2E/DX2                !
 ! A8    A(3,4,8)              113.2273         estimate D2E/DX2                !
 ! A9    A(3,4,23)             109.1445         estimate D2E/DX2                !
 ! A10   A(3,4,24)             109.5332         estimate D2E/DX2                !
 ! A11   A(8,4,23)             108.2777         estimate D2E/DX2                !
 ! A12   A(8,4,24)             109.9718         estimate D2E/DX2                !
 ! A13   A(23,4,24)            106.451          estimate D2E/DX2                !
 ! A14   A(3,5,11)             115.8044         estimate D2E/DX2                !
 ! A15   A(3,5,25)             108.7736         estimate D2E/DX2                !
 ! A16   A(3,5,26)             108.5932         estimate D2E/DX2                !
 ! A17   A(11,5,25)            108.6477         estimate D2E/DX2                !
 ! A18   A(11,5,26)            108.2789         estimate D2E/DX2                !
 ! A19   A(25,5,26)            106.34           estimate D2E/DX2                !
 ! A20   A(7,6,9)              111.2091         estimate D2E/DX2                !
 ! A21   A(7,6,27)             109.8182         estimate D2E/DX2                !
 ! A22   A(7,6,28)             109.5314         estimate D2E/DX2                !
 ! A23   A(9,6,27)             109.4168         estimate D2E/DX2                !
 ! A24   A(9,6,28)             109.5375         estimate D2E/DX2                !
 ! A25   A(27,6,28)            107.2417         estimate D2E/DX2                !
 ! A26   A(6,7,10)             111.3314         estimate D2E/DX2                !
 ! A27   A(6,7,29)             109.5004         estimate D2E/DX2                !
 ! A28   A(6,7,30)             109.641          estimate D2E/DX2                !
 ! A29   A(10,7,29)            109.4953         estimate D2E/DX2                !
 ! A30   A(10,7,30)            109.6269         estimate D2E/DX2                !
 ! A31   A(29,7,30)            107.1517         estimate D2E/DX2                !
 ! A32   A(4,8,12)             115.5198         estimate D2E/DX2                !
 ! A33   A(4,8,31)             108.3546         estimate D2E/DX2                !
 ! A34   A(4,8,32)             108.798          estimate D2E/DX2                !
 ! A35   A(12,8,31)            109.235          estimate D2E/DX2                !
 ! A36   A(12,8,32)            108.351          estimate D2E/DX2                !
 ! A37   A(31,8,32)            106.1859         estimate D2E/DX2                !
 ! A38   A(6,9,13)             112.9584         estimate D2E/DX2                !
 ! A39   A(6,9,33)             109.2465         estimate D2E/DX2                !
 ! A40   A(6,9,34)             109.138          estimate D2E/DX2                !
 ! A41   A(13,9,33)            109.2865         estimate D2E/DX2                !
 ! A42   A(13,9,34)            109.5086         estimate D2E/DX2                !
 ! A43   A(33,9,34)            106.4966         estimate D2E/DX2                !
 ! A44   A(7,10,14)            111.2069         estimate D2E/DX2                !
 ! A45   A(7,10,35)            109.7497         estimate D2E/DX2                !
 ! A46   A(7,10,36)            109.5571         estimate D2E/DX2                !
 ! A47   A(14,10,35)           109.4341         estimate D2E/DX2                !
 ! A48   A(14,10,36)           109.5764         estimate D2E/DX2                !
 ! A49   A(35,10,36)           107.2303         estimate D2E/DX2                !
 ! A50   A(5,11,15)            115.7454         estimate D2E/DX2                !
 ! A51   A(5,11,37)            108.3855         estimate D2E/DX2                !
 ! A52   A(5,11,38)            108.5878         estimate D2E/DX2                !
 ! A53   A(15,11,37)           108.5791         estimate D2E/DX2                !
 ! A54   A(15,11,38)           108.8525         estimate D2E/DX2                !
 ! A55   A(37,11,38)           106.2865         estimate D2E/DX2                !
 ! A56   A(8,12,16)            113.0134         estimate D2E/DX2                !
 ! A57   A(8,12,39)            107.9664         estimate D2E/DX2                !
 ! A58   A(8,12,40)            109.7856         estimate D2E/DX2                !
 ! A59   A(16,12,39)           107.4019         estimate D2E/DX2                !
 ! A60   A(16,12,40)           112.6515         estimate D2E/DX2                !
 ! A61   A(39,12,40)           105.6152         estimate D2E/DX2                !
 ! A62   A(9,13,17)            112.8503         estimate D2E/DX2                !
 ! A63   A(9,13,41)            109.1651         estimate D2E/DX2                !
 ! A64   A(9,13,42)            109.0694         estimate D2E/DX2                !
 ! A65   A(17,13,41)           111.6406         estimate D2E/DX2                !
 ! A66   A(17,13,42)           107.9599         estimate D2E/DX2                !
 ! A67   A(41,13,42)           105.8848         estimate D2E/DX2                !
 ! A68   A(10,14,18)           112.465          estimate D2E/DX2                !
 ! A69   A(10,14,43)           109.443          estimate D2E/DX2                !
 ! A70   A(10,14,44)           109.5712         estimate D2E/DX2                !
 ! A71   A(18,14,43)           109.2951         estimate D2E/DX2                !
 ! A72   A(18,14,44)           109.4122         estimate D2E/DX2                !
 ! A73   A(43,14,44)           106.4744         estimate D2E/DX2                !
 ! A74   A(11,15,19)           113.6573         estimate D2E/DX2                !
 ! A75   A(11,15,45)           109.1576         estimate D2E/DX2                !
 ! A76   A(11,15,46)           109.216          estimate D2E/DX2                !
 ! A77   A(19,15,45)           108.9774         estimate D2E/DX2                !
 ! A78   A(19,15,46)           108.7808         estimate D2E/DX2                !
 ! A79   A(45,15,46)           106.8277         estimate D2E/DX2                !
 ! A80   A(12,16,17)           127.8133         estimate D2E/DX2                !
 ! A81   A(12,16,47)           115.2826         estimate D2E/DX2                !
 ! A82   A(17,16,47)           116.8874         estimate D2E/DX2                !
 ! A83   A(13,17,16)           127.9223         estimate D2E/DX2                !
 ! A84   A(13,17,48)           115.1371         estimate D2E/DX2                !
 ! A85   A(16,17,48)           116.9401         estimate D2E/DX2                !
 ! A86   A(14,18,20)           113.1085         estimate D2E/DX2                !
 ! A87   A(14,18,49)           109.5909         estimate D2E/DX2                !
 ! A88   A(14,18,50)           109.2687         estimate D2E/DX2                !
 ! A89   A(20,18,49)           107.9055         estimate D2E/DX2                !
 ! A90   A(20,18,50)           108.0626         estimate D2E/DX2                !
 ! A91   A(49,18,50)           108.8094         estimate D2E/DX2                !
 ! A92   A(15,19,51)           110.8267         estimate D2E/DX2                !
 ! A93   A(15,19,52)           110.3531         estimate D2E/DX2                !
 ! A94   A(15,19,53)           110.9137         estimate D2E/DX2                !
 ! A95   A(51,19,52)           108.1666         estimate D2E/DX2                !
 ! A96   A(51,19,53)           108.3009         estimate D2E/DX2                !
 ! A97   A(52,19,53)           108.1829         estimate D2E/DX2                !
 ! A98   A(1,20,2)             123.6938         estimate D2E/DX2                !
 ! A99   A(1,20,18)            110.0808         estimate D2E/DX2                !
 ! A100  A(2,20,18)            126.2085         estimate D2E/DX2                !
 ! D1    D(54,1,20,2)            0.5359         estimate D2E/DX2                !
 ! D2    D(54,1,20,18)         179.1233         estimate D2E/DX2                !
 ! D3    D(5,3,4,8)           -176.8277         estimate D2E/DX2                !
 ! D4    D(5,3,4,23)           -56.1473         estimate D2E/DX2                !
 ! D5    D(5,3,4,24)            60.0358         estimate D2E/DX2                !
 ! D6    D(21,3,4,8)            61.3649         estimate D2E/DX2                !
 ! D7    D(21,3,4,23)         -177.9547         estimate D2E/DX2                !
 ! D8    D(21,3,4,24)          -61.7716         estimate D2E/DX2                !
 ! D9    D(22,3,4,8)           -55.527          estimate D2E/DX2                !
 ! D10   D(22,3,4,23)           65.1534         estimate D2E/DX2                !
 ! D11   D(22,3,4,24)         -178.6635         estimate D2E/DX2                !
 ! D12   D(4,3,5,11)           176.4097         estimate D2E/DX2                !
 ! D13   D(4,3,5,25)           -60.9424         estimate D2E/DX2                !
 ! D14   D(4,3,5,26)            54.3892         estimate D2E/DX2                !
 ! D15   D(21,3,5,11)          -60.5822         estimate D2E/DX2                !
 ! D16   D(21,3,5,25)           62.0657         estimate D2E/DX2                !
 ! D17   D(21,3,5,26)          177.3974         estimate D2E/DX2                !
 ! D18   D(22,3,5,11)           55.0019         estimate D2E/DX2                !
 ! D19   D(22,3,5,25)          177.6498         estimate D2E/DX2                !
 ! D20   D(22,3,5,26)          -67.0186         estimate D2E/DX2                !
 ! D21   D(3,4,8,12)           -59.2646         estimate D2E/DX2                !
 ! D22   D(3,4,8,31)           177.8461         estimate D2E/DX2                !
 ! D23   D(3,4,8,32)            62.8107         estimate D2E/DX2                !
 ! D24   D(23,4,8,12)          179.5649         estimate D2E/DX2                !
 ! D25   D(23,4,8,31)           56.6756         estimate D2E/DX2                !
 ! D26   D(23,4,8,32)          -58.3598         estimate D2E/DX2                !
 ! D27   D(24,4,8,12)           63.6295         estimate D2E/DX2                !
 ! D28   D(24,4,8,31)          -59.2597         estimate D2E/DX2                !
 ! D29   D(24,4,8,32)         -174.2951         estimate D2E/DX2                !
 ! D30   D(3,5,11,15)         -177.6705         estimate D2E/DX2                !
 ! D31   D(3,5,11,37)          -55.4595         estimate D2E/DX2                !
 ! D32   D(3,5,11,38)           59.6006         estimate D2E/DX2                !
 ! D33   D(25,5,11,15)          59.6152         estimate D2E/DX2                !
 ! D34   D(25,5,11,37)        -178.1738         estimate D2E/DX2                !
 ! D35   D(25,5,11,38)         -63.1138         estimate D2E/DX2                !
 ! D36   D(26,5,11,15)         -55.483          estimate D2E/DX2                !
 ! D37   D(26,5,11,37)          66.728          estimate D2E/DX2                !
 ! D38   D(26,5,11,38)        -178.212          estimate D2E/DX2                !
 ! D39   D(9,6,7,10)          -178.6841         estimate D2E/DX2                !
 ! D40   D(9,6,7,29)           -57.4613         estimate D2E/DX2                !
 ! D41   D(9,6,7,30)            59.8329         estimate D2E/DX2                !
 ! D42   D(27,6,7,10)          -57.4264         estimate D2E/DX2                !
 ! D43   D(27,6,7,29)           63.7964         estimate D2E/DX2                !
 ! D44   D(27,6,7,30)         -178.9094         estimate D2E/DX2                !
 ! D45   D(28,6,7,10)           60.0989         estimate D2E/DX2                !
 ! D46   D(28,6,7,29)         -178.6783         estimate D2E/DX2                !
 ! D47   D(28,6,7,30)          -61.3842         estimate D2E/DX2                !
 ! D48   D(7,6,9,13)          -178.8752         estimate D2E/DX2                !
 ! D49   D(7,6,9,33)            59.2647         estimate D2E/DX2                !
 ! D50   D(7,6,9,34)           -56.809          estimate D2E/DX2                !
 ! D51   D(27,6,9,13)           59.6324         estimate D2E/DX2                !
 ! D52   D(27,6,9,33)          -62.2276         estimate D2E/DX2                !
 ! D53   D(27,6,9,34)         -178.3013         estimate D2E/DX2                !
 ! D54   D(28,6,9,13)          -57.6618         estimate D2E/DX2                !
 ! D55   D(28,6,9,33)         -179.5218         estimate D2E/DX2                !
 ! D56   D(28,6,9,34)           64.4045         estimate D2E/DX2                !
 ! D57   D(6,7,10,14)          178.6412         estimate D2E/DX2                !
 ! D58   D(6,7,10,35)           57.4092         estimate D2E/DX2                !
 ! D59   D(6,7,10,36)          -60.0772         estimate D2E/DX2                !
 ! D60   D(29,7,10,14)          57.4154         estimate D2E/DX2                !
 ! D61   D(29,7,10,35)         -63.8166         estimate D2E/DX2                !
 ! D62   D(29,7,10,36)         178.6971         estimate D2E/DX2                !
 ! D63   D(30,7,10,14)         -59.8676         estimate D2E/DX2                !
 ! D64   D(30,7,10,35)         178.9004         estimate D2E/DX2                !
 ! D65   D(30,7,10,36)          61.414          estimate D2E/DX2                !
 ! D66   D(4,8,12,16)          -62.2125         estimate D2E/DX2                !
 ! D67   D(4,8,12,39)          179.1462         estimate D2E/DX2                !
 ! D68   D(4,8,12,40)           64.4769         estimate D2E/DX2                !
 ! D69   D(31,8,12,16)          60.2092         estimate D2E/DX2                !
 ! D70   D(31,8,12,39)         -58.4321         estimate D2E/DX2                !
 ! D71   D(31,8,12,40)        -173.1014         estimate D2E/DX2                !
 ! D72   D(32,8,12,16)         175.4735         estimate D2E/DX2                !
 ! D73   D(32,8,12,39)          56.8323         estimate D2E/DX2                !
 ! D74   D(32,8,12,40)         -57.837          estimate D2E/DX2                !
 ! D75   D(6,9,13,17)          177.0897         estimate D2E/DX2                !
 ! D76   D(6,9,13,41)           52.3306         estimate D2E/DX2                !
 ! D77   D(6,9,13,42)          -62.9297         estimate D2E/DX2                !
 ! D78   D(33,9,13,17)         -61.0728         estimate D2E/DX2                !
 ! D79   D(33,9,13,41)         174.1681         estimate D2E/DX2                !
 ! D80   D(33,9,13,42)          58.9078         estimate D2E/DX2                !
 ! D81   D(34,9,13,17)          55.2317         estimate D2E/DX2                !
 ! D82   D(34,9,13,41)         -69.5274         estimate D2E/DX2                !
 ! D83   D(34,9,13,42)         175.2123         estimate D2E/DX2                !
 ! D84   D(7,10,14,18)         178.8567         estimate D2E/DX2                !
 ! D85   D(7,10,14,43)          57.1778         estimate D2E/DX2                !
 ! D86   D(7,10,14,44)         -59.2247         estimate D2E/DX2                !
 ! D87   D(35,10,14,18)        -59.7267         estimate D2E/DX2                !
 ! D88   D(35,10,14,43)        178.5945         estimate D2E/DX2                !
 ! D89   D(35,10,14,44)         62.1919         estimate D2E/DX2                !
 ! D90   D(36,10,14,18)         57.5864         estimate D2E/DX2                !
 ! D91   D(36,10,14,43)        -64.0925         estimate D2E/DX2                !
 ! D92   D(36,10,14,44)        179.5049         estimate D2E/DX2                !
 ! D93   D(5,11,15,19)         178.0357         estimate D2E/DX2                !
 ! D94   D(5,11,15,45)         -60.0912         estimate D2E/DX2                !
 ! D95   D(5,11,15,46)          56.373          estimate D2E/DX2                !
 ! D96   D(37,11,15,19)         55.9276         estimate D2E/DX2                !
 ! D97   D(37,11,15,45)        177.8007         estimate D2E/DX2                !
 ! D98   D(37,11,15,46)        -65.7351         estimate D2E/DX2                !
 ! D99   D(38,11,15,19)        -59.3752         estimate D2E/DX2                !
 ! D100  D(38,11,15,45)         62.4979         estimate D2E/DX2                !
 ! D101  D(38,11,15,46)        178.962          estimate D2E/DX2                !
 ! D102  D(8,12,16,17)         125.0422         estimate D2E/DX2                !
 ! D103  D(8,12,16,47)         -56.4996         estimate D2E/DX2                !
 ! D104  D(39,12,16,17)       -115.9892         estimate D2E/DX2                !
 ! D105  D(39,12,16,47)         62.469          estimate D2E/DX2                !
 ! D106  D(40,12,16,17)         -0.1111         estimate D2E/DX2                !
 ! D107  D(40,12,16,47)        178.347          estimate D2E/DX2                !
 ! D108  D(9,13,17,16)        -115.6551         estimate D2E/DX2                !
 ! D109  D(9,13,17,48)          64.0818         estimate D2E/DX2                !
 ! D110  D(41,13,17,16)          7.7428         estimate D2E/DX2                !
 ! D111  D(41,13,17,48)       -172.5203         estimate D2E/DX2                !
 ! D112  D(42,13,17,16)        123.7284         estimate D2E/DX2                !
 ! D113  D(42,13,17,48)        -56.5347         estimate D2E/DX2                !
 ! D114  D(10,14,18,20)       -179.6581         estimate D2E/DX2                !
 ! D115  D(10,14,18,49)        -59.2153         estimate D2E/DX2                !
 ! D116  D(10,14,18,50)         59.9256         estimate D2E/DX2                !
 ! D117  D(43,14,18,20)        -57.8951         estimate D2E/DX2                !
 ! D118  D(43,14,18,49)         62.5476         estimate D2E/DX2                !
 ! D119  D(43,14,18,50)       -178.3114         estimate D2E/DX2                !
 ! D120  D(44,14,18,20)         58.3331         estimate D2E/DX2                !
 ! D121  D(44,14,18,49)        178.7759         estimate D2E/DX2                !
 ! D122  D(44,14,18,50)        -62.0832         estimate D2E/DX2                !
 ! D123  D(11,15,19,51)         60.1623         estimate D2E/DX2                !
 ! D124  D(11,15,19,52)        179.9577         estimate D2E/DX2                !
 ! D125  D(11,15,19,53)        -60.1702         estimate D2E/DX2                !
 ! D126  D(45,15,19,51)        -61.8108         estimate D2E/DX2                !
 ! D127  D(45,15,19,52)         57.9847         estimate D2E/DX2                !
 ! D128  D(45,15,19,53)        177.8567         estimate D2E/DX2                !
 ! D129  D(46,15,19,51)       -177.9332         estimate D2E/DX2                !
 ! D130  D(46,15,19,52)        -58.1377         estimate D2E/DX2                !
 ! D131  D(46,15,19,53)         61.7344         estimate D2E/DX2                !
 ! D132  D(12,16,17,13)         -1.2456         estimate D2E/DX2                !
 ! D133  D(12,16,17,48)        179.0216         estimate D2E/DX2                !
 ! D134  D(47,16,17,13)       -179.6825         estimate D2E/DX2                !
 ! D135  D(47,16,17,48)          0.5847         estimate D2E/DX2                !
 ! D136  D(14,18,20,1)        -176.0782         estimate D2E/DX2                !
 ! D137  D(14,18,20,2)           2.4652         estimate D2E/DX2                !
 ! D138  D(49,18,20,1)          62.5239         estimate D2E/DX2                !
 ! D139  D(49,18,20,2)        -118.9327         estimate D2E/DX2                !
 ! D140  D(50,18,20,1)         -54.9773         estimate D2E/DX2                !
 ! D141  D(50,18,20,2)         123.5661         estimate D2E/DX2                !
 --------------------------------------------------------------------------------
 Trust Radius=3.00D-01 FncErr=1.00D-07 GrdErr=1.00D-06 EigMax=2.50D+02 EigMin=1.00D-04
 Number of steps in this run=    304 maximum allowed number of steps=    324.
 GradGradGradGradGradGradGradGradGradGradGradGradGradGradGradGradGradGrad

 Stoichiometry    C18H34O2
 Framework group  C1[X(C18H34O2)]
 Deg. of freedom   156
 Full point group                 C1      NOp   1
 Largest Abelian subgroup         C1      NOp   1
 Largest concise Abelian subgroup C1      NOp   1
                         Standard orientation:                         
 ---------------------------------------------------------------------
 Center     Atomic      Atomic             Coordinates (Angstroms)
 Number     Number       Type             X           Y           Z
 ---------------------------------------------------------------------
      1          8           0       -7.216810   -0.345067   -0.631190
      2          8           0       -6.114518    0.136169    1.300264
      3          6           0        3.187112    1.502997   -0.299199
      4          6           0        4.479392    1.301091    0.494880
      5          6           0        2.136351    2.329009    0.449815
      6          6           0        0.020623   -1.974752   -0.415443
      7          6           0       -1.178084   -1.405502    0.346170
      8          6           0        5.557219    0.540414   -0.287143
      9          6           0        1.272076   -2.009969    0.467246
     10          6           0       -2.437656   -1.399132   -0.522778
     11          6           0        0.852828    2.638089   -0.327481
     12          6           0        5.164578   -0.865821   -0.756026
     13          6           0        2.504785   -2.548358   -0.265154
     14          6           0       -3.643487   -0.859933    0.253176
     15          6           0       -0.171942    3.509554    0.401345
     16          6           0        4.861810   -1.800144    0.379789
     17          6           0        3.745203   -2.516856    0.580190
     18          6           0       -4.912837   -0.814797   -0.597492
     19          6           0       -1.405122    3.825635   -0.429844
     20          6           0       -6.108725   -0.277773    0.150847
     21          1           0        2.743601    0.537918   -0.560516
     22          1           0        3.424282    2.006622   -1.244489
     23          1           0        4.885408    2.280573    0.776447
     24          1           0        4.256005    0.776689    1.431466
     25          1           0        1.868241    1.803816    1.375279
     26          1           0        2.591268    3.279873    0.755126
     27          1           0       -0.208077   -2.988874   -0.764281
     28          1           0        0.215429   -1.361661   -1.303665
     29          1           0       -1.357802   -2.004955    1.246853
     30          1           0       -0.953479   -0.384077    0.676909
     31          1           0        6.456778    0.474983    0.338478
     32          1           0        5.839134    1.131883   -1.167294
     33          1           0        1.074718   -2.631553    1.350181
     34          1           0        1.479101   -0.998419    0.838325
     35          1           0       -2.652971   -2.416619   -0.870736
     36          1           0       -2.266827   -0.780924   -1.412363
     37          1           0        1.128069    3.133732   -1.267129
     38          1           0        0.376668    1.689954   -0.607658
     39          1           0        6.012965   -1.287042   -1.310279
     40          1           0        4.345958   -0.800280   -1.476586
     41          1           0        2.638524   -1.994011   -1.198415
     42          1           0        2.321348   -3.589650   -0.558044
     43          1           0       -3.418679    0.148628    0.622927
     44          1           0       -3.819751   -1.483818    1.138477
     45          1           0       -0.483262    3.004172    1.323264
     46          1           0        0.303020    4.451414    0.700530
     47          1           0        5.661280   -1.919482    1.109634
     48          1           0        3.720264   -3.155191    1.462245
     49          1           0       -4.746973   -0.174749   -1.471290
     50          1           0       -5.153820   -1.827154   -0.941611
     51          1           0       -1.927148    2.907119   -0.716571
     52          1           0       -2.099982    4.448819    0.141753
     53          1           0       -1.133417    4.365622   -1.342228
     54          1           0       -8.013994   -0.014684   -0.164737
 ---------------------------------------------------------------------
 Rotational constants (GHZ):           0.4269262           0.1087409           0.0901637
 Standard basis: 6-311++G(d,p) (5D, 7F)
 There are   698 symmetry adapted cartesian basis functions of A   symmetry.
 There are   678 symmetry adapted basis functions of A   symmetry.
   678 basis functions,  1026 primitive gaussians,   698 cartesian basis functions
    79 alpha electrons       79 beta electrons
       nuclear repulsion energy      1539.5079852882 Hartrees.
 NAtoms=   54 NActive=   54 NUniq=   54 SFac= 1.00D+00 NAtFMM=   60 NAOKFM=F Big=F
 Integral buffers will be    131072 words long.
 Raffenetti 2 integral format.
 Two-electron integral symmetry is turned on.
 R6APFD:  NTU= -4 IXU= 1 FactS= 1.050
 Nuclear repulsion after empirical dispersion term =     1539.4623048228 Hartrees.
 One-electron integrals computed using PRISM.
 NBasis=   678 RedAO= T EigKep=  1.14D-06  NBF=   678
 NBsUse=   678 1.00D-06 EigRej= -1.00D+00 NBFU=   678
 ExpMin= 3.60D-02 ExpMax= 8.59D+03 ExpMxC= 1.30D+03 IAcc=3 IRadAn=         5 AccDes= 0.00D+00
 Harris functional with IExCor= 1009 and IRadAn=       5 diagonalized for initial guess.
 HarFok:  IExCor= 1009 AccDes= 0.00D+00 IRadAn=         5 IDoV= 1 UseB2=F ITyADJ=14
 ICtDFT=  3500011 ScaDFX=  1.000000  1.000000  1.000000  1.000000
 FoFCou: FMM=F IPFlag=           0 FMFlag=      100000 FMFlg1=           0
         NFxFlg=           0 DoJE=T BraDBF=F KetDBF=T FulRan=T
         wScrn=  0.000000 ICntrl=       500 IOpCl=  0 I1Cent=   200000004 NGrid=           0
         NMat0=    1 NMatS0=      1 NMatT0=    0 NMatD0=    1 NMtDS0=    0 NMtDT0=    0
 Petite list used in FoFCou.
 Requested convergence on RMS density matrix=1.00D-08 within  32 cycles.
 Requested convergence on MAX density matrix=1.00D-06.
 Requested convergence on             energy=1.00D-06.
 No special actions if energy rises.
 SCF Done:  E(RM08HX) =  -856.918037733     A.U. after   15 cycles
            NFock= 15  Conv=0.20D-08     -V/T= 2.0055
 QCSCF skips out because SCF is already converged.

 **********************************************************************

            Population analysis using the SCF Density.

 **********************************************************************

 Orbital symmetries:
       Occupied  (A) (A) (A) (A) (A) (A) (A) (A) (A) (A) (A) (A)
                 (A) (A) (A) (A) (A) (A) (A) (A) (A) (A) (A) (A)
                 (A) (A) (A) (A) (A) (A) (A) (A) (A) (A) (A) (A)
                 (A) (A) (A) (A) (A) (A) (A) (A) (A) (A) (A) (A)
                 (A) (A) (A) (A) (A) (A) (A) (A) (A) (A) (A) (A)
                 (A) (A) (A) (A) (A) (A) (A) (A) (A) (A) (A) (A)
                 (A) (A) (A) (A) (A) (A) (A)
       Virtual   (A) (A) (A) (A) (A) (A) (A) (A) (A) (A) (A) (A)
                 (A) (A) (A) (A) (A) (A) (A) (A) (A) (A) (A) (A)
                 (A) (A) (A) (A) (A) (A) (A) (A) (A) (A) (A) (A)
                 (A) (A) (A) (A) (A) (A) (A) (A) (A) (A) (A) (A)
                 (A) (A) (A) (A) (A) (A) (A) (A) (A) (A) (A) (A)
                 (A) (A) (A) (A) (A) (A) (A) (A) (A) (A) (A) (A)
                 (A) (A) (A) (A) (A) (A) (A) (A) (A) (A) (A) (A)
                 (A) (A) (A) (A) (A) (A) (A) (A) (A) (A) (A) (A)
                 (A) (A) (A) (A) (A) (A) (A) (A) (A) (A) (A) (A)
                 (A) (A) (A) (A) (A) (A) (A) (A) (A) (A) (A) (A)
                 (A) (A) (A) (A) (A) (A) (A) (A) (A) (A) (A) (A)
                 (A) (A) (A) (A) (A) (A) (A) (A) (A) (A) (A) (A)
                 (A) (A) (A) (A) (A) (A) (A) (A) (A) (A) (A) (A)
                 (A) (A) (A) (A) (A) (A) (A) (A) (A) (A) (A) (A)
                 (A) (A) (A) (A) (A) (A) (A) (A) (A) (A) (A) (A)
                 (A) (A) (A) (A) (A) (A) (A) (A) (A) (A) (A) (A)
                 (A) (A) (A) (A) (A) (A) (A) (A) (A) (A) (A) (A)
                 (A) (A) (A) (A) (A) (A) (A) (A) (A) (A) (A) (A)
                 (A) (A) (A) (A) (A) (A) (A) (A) (A) (A) (A) (A)
                 (A) (A) (A) (A) (A) (A) (A) (A) (A) (A) (A) (A)
                 (A) (A) (A) (A) (A) (A) (A) (A) (A) (A) (A) (A)
                 (A) (A) (A) (A) (A) (A) (A) (A) (A) (A) (A) (A)
                 (A) (A) (A) (A) (A) (A) (A) (A) (A) (A) (A) (A)
                 (A) (A) (A) (A) (A) (A) (A) (A) (A) (A) (A) (A)
                 (A) (A) (A) (A) (A) (A) (A) (A) (A) (A) (A) (A)
                 (A) (A) (A) (A) (A) (A) (A) (A) (A) (A) (A) (A)
                 (A) (A) (A) (A) (A) (A) (A) (A) (A) (A) (A) (A)
                 (A) (A) (A) (A) (A) (A) (A) (A) (A) (A) (A) (A)
                 (A) (A) (A) (A) (A) (A) (A) (A) (A) (A) (A) (A)
                 (A) (A) (A) (A) (A) (A) (A) (A) (A) (A) (A) (A)
                 (A) (A) (A) (A) (A) (A) (A) (A) (A) (A) (A) (A)
                 (A) (A) (A) (A) (A) (A) (A) (A) (A) (A) (A) (A)
                 (A) (A) (A) (A) (A) (A) (A) (A) (A) (A) (A) (A)
                 (A) (A) (A) (A) (A) (A) (A) (A) (A) (A) (A) (A)
                 (A) (A) (A) (A) (A) (A) (A) (A) (A) (A) (A) (A)
                 (A) (A) (A) (A) (A) (A) (A) (A) (A) (A) (A) (A)
                 (A) (A) (A) (A) (A) (A) (A) (A) (A) (A) (A) (A)
                 (A) (A) (A) (A) (A) (A) (A) (A) (A) (A) (A) (A)
                 (A) (A) (A) (A) (A) (A) (A) (A) (A) (A) (A) (A)
                 (A) (A) (A) (A) (A) (A) (A) (A) (A) (A) (A) (A)
                 (A) (A) (A) (A) (A) (A) (A) (A) (A) (A) (A) (A)
                 (A) (A) (A) (A) (A) (A) (A) (A) (A) (A) (A) (A)
                 (A) (A) (A) (A) (A) (A) (A) (A) (A) (A) (A) (A)
                 (A) (A) (A) (A) (A) (A) (A) (A) (A) (A) (A) (A)
                 (A) (A) (A) (A) (A) (A) (A) (A) (A) (A) (A) (A)
                 (A) (A) (A) (A) (A) (A) (A) (A) (A) (A) (A) (A)
                 (A) (A) (A) (A) (A) (A) (A) (A) (A) (A) (A) (A)
                 (A) (A) (A) (A) (A) (A) (A) (A) (A) (A) (A) (A)
                 (A) (A) (A) (A) (A) (A) (A) (A) (A) (A) (A) (A)
                 (A) (A) (A) (A) (A) (A) (A) (A) (A) (A) (A)
 The electronic state is 1-A.
 Alpha  occ. eigenvalues --  -19.66363 -19.60892 -10.67823 -10.54872 -10.52999
 Alpha  occ. eigenvalues --  -10.52771 -10.52668 -10.52608 -10.52553 -10.52468
 Alpha  occ. eigenvalues --  -10.52464 -10.52423 -10.52369 -10.52270 -10.52025
 Alpha  occ. eigenvalues --  -10.51976 -10.51937 -10.51879 -10.51815 -10.51260
 Alpha  occ. eigenvalues --   -1.23296  -1.13806  -0.93304  -0.92570  -0.91346
 Alpha  occ. eigenvalues --   -0.90116  -0.88215  -0.86078  -0.83664  -0.80748
 Alpha  occ. eigenvalues --   -0.78300  -0.74999  -0.73237  -0.69472  -0.68737
 Alpha  occ. eigenvalues --   -0.66940  -0.66364  -0.65881  -0.65220  -0.60364
 Alpha  occ. eigenvalues --   -0.58497  -0.57697  -0.57200  -0.56561  -0.55680
 Alpha  occ. eigenvalues --   -0.54665  -0.53298  -0.52147  -0.51487  -0.50361
 Alpha  occ. eigenvalues --   -0.50019  -0.49505  -0.48975  -0.48306  -0.47927
 Alpha  occ. eigenvalues --   -0.46865  -0.45995  -0.45379  -0.45083  -0.44042
 Alpha  occ. eigenvalues --   -0.43719  -0.42404  -0.41660  -0.41296  -0.41206
 Alpha  occ. eigenvalues --   -0.40432  -0.40257  -0.39966  -0.39664  -0.39341
 Alpha  occ. eigenvalues --   -0.38986  -0.38612  -0.38186  -0.37778  -0.37719
 Alpha  occ. eigenvalues --   -0.37081  -0.36491  -0.36172  -0.30066
 Alpha virt. eigenvalues --   -0.03316  -0.02596  -0.02423  -0.02281  -0.01901
 Alpha virt. eigenvalues --   -0.01290  -0.00955  -0.00586  -0.00318  -0.00274
 Alpha virt. eigenvalues --    0.00376   0.00794   0.01400   0.01556   0.01681
 Alpha virt. eigenvalues --    0.02251   0.02447   0.02861   0.02903   0.03231
 Alpha virt. eigenvalues --    0.03633   0.03769   0.03984   0.04066   0.04448
 Alpha virt. eigenvalues --    0.04746   0.05168   0.05347   0.05670   0.06223
 Alpha virt. eigenvalues --    0.06441   0.06824   0.07119   0.07391   0.08057
 Alpha virt. eigenvalues --    0.08298   0.08628   0.08927   0.09274   0.09412
 Alpha virt. eigenvalues --    0.09461   0.09953   0.10216   0.10482   0.10708
 Alpha virt. eigenvalues --    0.10722   0.11448   0.11654   0.11766   0.11979
 Alpha virt. eigenvalues --    0.12037   0.12121   0.12479   0.12767   0.12971
 Alpha virt. eigenvalues --    0.13140   0.13200   0.13365   0.13584   0.13819
 Alpha virt. eigenvalues --    0.14114   0.14307   0.14436   0.14554   0.14792
 Alpha virt. eigenvalues --    0.14853   0.14995   0.15068   0.15386   0.15506
 Alpha virt. eigenvalues --    0.15936   0.16075   0.16280   0.16594   0.16794
 Alpha virt. eigenvalues --    0.17054   0.17329   0.17618   0.17748   0.18057
 Alpha virt. eigenvalues --    0.18144   0.18323   0.18519   0.18802   0.19261
 Alpha virt. eigenvalues --    0.19347   0.19620   0.20066   0.20356   0.20705
 Alpha virt. eigenvalues --    0.20789   0.20977   0.21389   0.21586   0.21781
 Alpha virt. eigenvalues --    0.22361   0.22706   0.22756   0.23058   0.23171
 Alpha virt. eigenvalues --    0.23512   0.23577   0.24070   0.24143   0.24393
 Alpha virt. eigenvalues --    0.24599   0.24846   0.24892   0.25362   0.25640
 Alpha virt. eigenvalues --    0.25813   0.26053   0.26381   0.26447   0.26961
 Alpha virt. eigenvalues --    0.27400   0.27624   0.27918   0.28021   0.28714
 Alpha virt. eigenvalues --    0.28812   0.29078   0.29295   0.29530   0.29582
 Alpha virt. eigenvalues --    0.29835   0.30343   0.30625   0.30863   0.31125
 Alpha virt. eigenvalues --    0.31410   0.31605   0.31992   0.32475   0.32615
 Alpha virt. eigenvalues --    0.32959   0.33172   0.33395   0.33483   0.33823
 Alpha virt. eigenvalues --    0.34082   0.34430   0.34754   0.34892   0.35004
 Alpha virt. eigenvalues --    0.35428   0.35610   0.36071   0.36429   0.37030
 Alpha virt. eigenvalues --    0.37712   0.37991   0.38397   0.38469   0.38946
 Alpha virt. eigenvalues --    0.39574   0.39666   0.40094   0.40446   0.41243
 Alpha virt. eigenvalues --    0.42016   0.42671   0.43082   0.43424   0.43582
 Alpha virt. eigenvalues --    0.45534   0.46349   0.46517   0.47956   0.48354
 Alpha virt. eigenvalues --    0.49453   0.50677   0.51255   0.51406   0.52521
 Alpha virt. eigenvalues --    0.52776   0.53788   0.54089   0.54941   0.55329
 Alpha virt. eigenvalues --    0.55610   0.56052   0.57197   0.57453   0.58360
 Alpha virt. eigenvalues --    0.58718   0.59698   0.60510   0.60723   0.61145
 Alpha virt. eigenvalues --    0.62023   0.62900   0.63013   0.63605   0.63900
 Alpha virt. eigenvalues --    0.64802   0.65190   0.65731   0.66537   0.68224
 Alpha virt. eigenvalues --    0.68561   0.68793   0.69259   0.69530   0.69627
 Alpha virt. eigenvalues --    0.70209   0.70506   0.70689   0.70969   0.71546
 Alpha virt. eigenvalues --    0.71747   0.72019   0.72553   0.72974   0.73601
 Alpha virt. eigenvalues --    0.73657   0.73759   0.73981   0.74267   0.74822
 Alpha virt. eigenvalues --    0.75713   0.75920   0.76526   0.76783   0.77075
 Alpha virt. eigenvalues --    0.77661   0.77791   0.78081   0.78216   0.78397
 Alpha virt. eigenvalues --    0.78643   0.79189   0.79634   0.79916   0.80637
 Alpha virt. eigenvalues --    0.80828   0.81324   0.81465   0.81821   0.81997
 Alpha virt. eigenvalues --    0.82608   0.83079   0.83421   0.83837   0.84536
 Alpha virt. eigenvalues --    0.85408   0.85656   0.85845   0.87035   0.87715
 Alpha virt. eigenvalues --    0.88126   0.89285   0.90373   0.90988   0.91505
 Alpha virt. eigenvalues --    0.91986   0.93362   0.93528   0.95365   0.96749
 Alpha virt. eigenvalues --    0.98645   0.99845   1.01009   1.03093   1.03440
 Alpha virt. eigenvalues --    1.03757   1.04769   1.05721   1.06322   1.06704
 Alpha virt. eigenvalues --    1.08447   1.08968   1.10217   1.10627   1.11193
 Alpha virt. eigenvalues --    1.11816   1.12664   1.13988   1.14603   1.16529
 Alpha virt. eigenvalues --    1.17278   1.19430   1.20294   1.20645   1.21272
 Alpha virt. eigenvalues --    1.22775   1.24259   1.25743   1.26351   1.27048
 Alpha virt. eigenvalues --    1.27869   1.28145   1.28407   1.29583   1.29966
 Alpha virt. eigenvalues --    1.30528   1.31111   1.31817   1.32303   1.32844
 Alpha virt. eigenvalues --    1.33851   1.35250   1.35540   1.38934   1.39391
 Alpha virt. eigenvalues --    1.42619   1.44485   1.45719   1.50116   1.50222
 Alpha virt. eigenvalues --    1.50833   1.52279   1.53137   1.53573   1.53888
 Alpha virt. eigenvalues --    1.54007   1.55395   1.55777   1.56825   1.57898
 Alpha virt. eigenvalues --    1.59004   1.59490   1.59996   1.60215   1.61530
 Alpha virt. eigenvalues --    1.62137   1.62317   1.62717   1.63478   1.64201
 Alpha virt. eigenvalues --    1.64594   1.64772   1.65231   1.65422   1.65748
 Alpha virt. eigenvalues --    1.65976   1.66190   1.66545   1.67042   1.67632
 Alpha virt. eigenvalues --    1.67783   1.68136   1.68872   1.69229   1.69288
 Alpha virt. eigenvalues --    1.70100   1.70775   1.70913   1.70978   1.71427
 Alpha virt. eigenvalues --    1.72223   1.73174   1.73788   1.74041   1.74533
 Alpha virt. eigenvalues --    1.76094   1.76411   1.76450   1.76625   1.77081
 Alpha virt. eigenvalues --    1.77421   1.77618   1.78114   1.79120   1.79227
 Alpha virt. eigenvalues --    1.79695   1.80201   1.80705   1.81864   1.82185
 Alpha virt. eigenvalues --    1.82771   1.84440   1.84582   1.86413   1.87123
 Alpha virt. eigenvalues --    1.87865   1.88498   1.89684   1.89965   1.91626
 Alpha virt. eigenvalues --    1.92236   1.92622   1.92905   1.94075   1.94886
 Alpha virt. eigenvalues --    1.95388   1.96135   1.96714   1.98155   2.00745
 Alpha virt. eigenvalues --    2.02305   2.02899   2.04920   2.05579   2.06259
 Alpha virt. eigenvalues --    2.07360   2.09341   2.11181   2.11496   2.12567
 Alpha virt. eigenvalues --    2.13464   2.14680   2.15357   2.15457   2.18024
 Alpha virt. eigenvalues --    2.19151   2.20378   2.20597   2.21479   2.22283
 Alpha virt. eigenvalues --    2.22466   2.24752   2.24844   2.25503   2.27001
 Alpha virt. eigenvalues --    2.27691   2.29122   2.29417   2.30053   2.31155
 Alpha virt. eigenvalues --    2.32424   2.33238   2.34184   2.35507   2.36433
 Alpha virt. eigenvalues --    2.37759   2.38741   2.40308   2.40602   2.41778
 Alpha virt. eigenvalues --    2.42479   2.43028   2.43985   2.44988   2.45842
 Alpha virt. eigenvalues --    2.47284   2.47551   2.48298   2.49593   2.49974
 Alpha virt. eigenvalues --    2.51142   2.52079   2.52656   2.53227   2.55125
 Alpha virt. eigenvalues --    2.55625   2.56759   2.57441   2.57828   2.58101
 Alpha virt. eigenvalues --    2.58348   2.59293   2.59711   2.60176   2.60344
 Alpha virt. eigenvalues --    2.61456   2.62310   2.62782   2.63241   2.63604
 Alpha virt. eigenvalues --    2.64571   2.65039   2.65466   2.66217   2.67166
 Alpha virt. eigenvalues --    2.67355   2.68552   2.69437   2.70117   2.70157
 Alpha virt. eigenvalues --    2.70417   2.70703   2.71670   2.72206   2.73002
 Alpha virt. eigenvalues --    2.73837   2.74366   2.75174   2.75857   2.76935
 Alpha virt. eigenvalues --    2.78006   2.79108   2.79794   2.80372   2.80444
 Alpha virt. eigenvalues --    2.80778   2.82222   2.83607   2.84422   2.84815
 Alpha virt. eigenvalues --    2.85866   2.86163   2.86942   2.87720   2.88669
 Alpha virt. eigenvalues --    2.89071   2.89935   2.90827   2.91139   2.93137
 Alpha virt. eigenvalues --    2.94470   2.95210   2.95588   2.95716   2.96467
 Alpha virt. eigenvalues --    2.96796   2.97629   2.98596   2.99524   3.00437
 Alpha virt. eigenvalues --    3.02527   3.05870   3.06184   3.07695   3.11046
 Alpha virt. eigenvalues --    3.11919   3.13018   3.13451   3.14068   3.16368
 Alpha virt. eigenvalues --    3.18154   3.20645   3.23830   3.24710   3.26518
 Alpha virt. eigenvalues --    3.30540   3.33071   3.39407   3.43098   3.43264
 Alpha virt. eigenvalues --    3.47661   3.49399   3.53692   3.56753   3.57426
 Alpha virt. eigenvalues --    3.62313   3.63571   3.73211   3.81000   3.81330
 Alpha virt. eigenvalues --    3.81568   3.82404   3.83772   3.85068   3.85433
 Alpha virt. eigenvalues --    3.85836   3.86359   3.87246   3.87786   3.88384
 Alpha virt. eigenvalues --    3.90065   3.91750   3.93901   3.97132   3.97547
 Alpha virt. eigenvalues --    4.03851   4.09591   4.09805   4.10586   4.13208
 Alpha virt. eigenvalues --    4.13703   4.14652   4.18589   4.19295   4.26565
 Alpha virt. eigenvalues --    4.27744   4.35406   4.36182   4.42914   4.44024
 Alpha virt. eigenvalues --    4.45241   4.51639   4.55483   5.08604   5.16230
 Alpha virt. eigenvalues --    5.32903   5.49143   5.69206   5.95251  23.82743
 Alpha virt. eigenvalues --   23.83401  23.92619  23.94413  23.94922  23.95321
 Alpha virt. eigenvalues --   23.95830  23.96377  23.96836  23.97519  23.98594
 Alpha virt. eigenvalues --   23.99357  24.00833  24.01860  24.02596  24.03870
 Alpha virt. eigenvalues --   24.05411  24.31618  49.88490  50.00320
          Condensed to atoms (all electrons):
 Mulliken charges:
               1
     1  O   -0.154743
     2  O   -0.224693
     3  C   -0.291448
     4  C   -0.233574
     5  C   -0.698960
     6  C   -1.087885
     7  C    0.139044
     8  C   -0.820939
     9  C   -0.367133
    10  C   -0.624855
    11  C   -0.044326
    12  C   -0.075026
    13  C   -0.974800
    14  C   -0.214159
    15  C   -0.383509
    16  C   -0.412894
    17  C    0.415801
    18  C   -0.908304
    19  C   -0.910134
    20  C    0.194261
    21  H    0.179690
    22  H    0.205033
    23  H    0.242229
    24  H    0.240515
    25  H    0.229246
    26  H    0.190629
    27  H    0.208144
    28  H    0.247939
    29  H    0.216474
    30  H    0.200382
    31  H    0.254079
    32  H    0.237645
    33  H    0.223345
    34  H    0.251385
    35  H    0.201847
    36  H    0.191027
    37  H    0.195243
    38  H    0.195717
    39  H    0.288838
    40  H    0.195248
    41  H    0.146847
    42  H    0.268490
    43  H    0.202156
    44  H    0.244420
    45  H    0.199782
    46  H    0.209883
    47  H    0.264161
    48  H    0.294813
    49  H    0.270392
    50  H    0.269327
    51  H    0.175213
    52  H    0.219074
    53  H    0.189641
    54  H    0.329420
 Sum of Mulliken charges =  -0.00000
 Mulliken charges with hydrogens summed into heavy atoms:
               1
     1  O    0.174677
     2  O   -0.224693
     3  C    0.093275
     4  C    0.249171
     5  C   -0.279085
     6  C   -0.631802
     7  C    0.555900
     8  C   -0.329215
     9  C    0.107596
    10  C   -0.231981
    11  C    0.346634
    12  C    0.409060
    13  C   -0.559462
    14  C    0.232417
    15  C    0.026155
    16  C   -0.148733
    17  C    0.710615
    18  C   -0.368586
    19  C   -0.326206
    20  C    0.194261
 Electronic spatial extent (au):  <R**2>=          11656.9476
 Charge=             -0.0000 electrons
 Dipole moment (field-independent basis, Debye):
    X=              0.0430    Y=             -0.4476    Z=             -1.6492  Tot=              1.7094
 Quadrupole moment (field-independent basis, Debye-Ang):
   XX=           -125.4060   YY=           -128.8430   ZZ=           -136.6580
   XY=              4.3609   XZ=              7.2422   YZ=             -2.4230
 Traceless Quadrupole moment (field-independent basis, Debye-Ang):
   XX=              4.8963   YY=              1.4594   ZZ=             -6.3556
   XY=              4.3609   XZ=              7.2422   YZ=             -2.4230
 Octapole moment (field-independent basis, Debye-Ang**2):
  XXX=           -156.5661  YYY=              1.0487  ZZZ=             -3.7990  XYY=            -30.3619
  XXY=              7.9819  XXZ=            -37.8125  XZZ=             13.6597  YZZ=             -2.9933
  YYZ=              4.8152  XYZ=              2.8414
 Hexadecapole moment (field-independent basis, Debye-Ang**3):
 XXXX=         -10364.7513 YYYY=          -3278.7324 ZZZZ=           -526.4988 XXXY=              9.3960
 XXXZ=            169.5209 YYYX=             69.8254 YYYZ=            -12.2267 ZZZX=             13.3159
 ZZZY=            -11.7812 XXYY=          -2578.3723 XXZZ=          -2290.4330 YYZZ=           -634.4022
 XXYZ=            -71.9979 YYXZ=              1.7107 ZZXY=             -0.5815
 N-N= 1.539462304823D+03 E-N=-5.068085698407D+03  KE= 8.522362201678D+02
 R6APFD:  NTU= -4 IXU= 1 FactS= 1.050
 Calling FoFJK, ICntrl=      2127 FMM=F ISym2X=0 I1Cent= 0 IOpClX= 0 NMat=1 NMatS=1 NMatT=0.
 ***** Axes restored to original set *****
 -------------------------------------------------------------------
 Center     Atomic                   Forces (Hartrees/Bohr)
 Number     Number              X              Y              Z
 -------------------------------------------------------------------
      1        8           0.006733907   -0.005918191    0.009658805
      2        8           0.001400277    0.011231445   -0.035980653
      3        6           0.004921383   -0.004341418    0.000480061
      4        6           0.002988662    0.002812545   -0.003229591
      5        6           0.001582235   -0.003181464    0.005131334
      6        6          -0.003908390   -0.002542625    0.010296768
      7        6           0.000706681    0.004437807   -0.011029091
      8        6          -0.000287504   -0.003089394    0.002229708
      9        6           0.000800697    0.001246284   -0.003461305
     10        6           0.004266050   -0.004322292    0.008892040
     11        6          -0.003141034    0.003287848   -0.005050534
     12        6          -0.001579750    0.000963034    0.000886060
     13        6          -0.001557441   -0.001036954    0.000108627
     14        6           0.000865850   -0.001480245   -0.001402046
     15        6          -0.006627260    0.002441843    0.004155523
     16        6           0.012762412    0.004364884   -0.000870714
     17        6          -0.007322092   -0.007903056   -0.001786945
     18        6          -0.007893426   -0.000739740    0.008024835
     19        6          -0.000202049    0.000938086   -0.000235590
     20        6           0.008732175   -0.007498286    0.027937925
     21        1           0.001203178    0.006663466   -0.001939712
     22        1          -0.000878587   -0.000397787   -0.004385207
     23        1           0.000086986   -0.002321291    0.001292311
     24        1           0.001109757    0.002659442    0.002492598
     25        1          -0.000006237    0.001095305    0.004087634
     26        1          -0.001641614   -0.002689666    0.002534897
     27        1           0.000983418    0.002481594   -0.002196877
     28        1          -0.000593823   -0.001370420   -0.003330997
     29        1           0.000389276    0.000673856    0.002943866
     30        1          -0.000803857   -0.002896273    0.001648786
     31        1          -0.002235316    0.001038867    0.000644681
     32        1          -0.000842871   -0.001581477   -0.001897534
     33        1           0.000355727    0.000372986    0.002869409
     34        1          -0.001689121   -0.003718039    0.001438959
     35        1          -0.000312914    0.002762611   -0.002083110
     36        1          -0.000760268   -0.000715570   -0.003282076
     37        1          -0.000029050   -0.000656705   -0.004142807
     38        1           0.002417755    0.004336788   -0.002508067
     39        1          -0.002262333    0.000163946   -0.002310452
     40        1           0.004184093    0.001260703   -0.000285276
     41        1          -0.001756234   -0.003012565   -0.002651481
     42        1           0.002276883    0.002784386   -0.001611834
     43        1           0.000274697   -0.000917685    0.001720833
     44        1           0.000423576   -0.000249556    0.001750139
     45        1          -0.000760840    0.000527822    0.003608002
     46        1          -0.002395446   -0.001604897    0.002466832
     47        1          -0.002929130   -0.001436561    0.002425184
     48        1           0.001025357    0.001770108    0.003004361
     49        1           0.002486748    0.001511755   -0.004384069
     50        1           0.002916997   -0.000463025   -0.004829210
     51        1           0.001562311    0.001187929   -0.001543038
     52        1           0.002099642   -0.000589101   -0.000917571
     53        1           0.000366600   -0.000614555   -0.002363494
     54        1          -0.017506746    0.004273499   -0.003020897
 -------------------------------------------------------------------
 Cartesian Forces:  Max     0.035980653 RMS     0.005220704

 GradGradGradGradGradGradGradGradGradGradGradGradGradGradGradGradGradGrad
 Berny optimization.
 FormGI is forming the generalized inverse of G from B-inverse, IUseBI=4.
 Internal  Forces:  Max     0.037646636 RMS     0.005317713
 Search for a local minimum.
 Step number   1 out of a maximum of  304
 All quantities printed in internal units (Hartrees-Bohrs-Radians)
 Mixed Optimization -- RFO/linear search
 Second derivative matrix not updated -- first step.
 ITU=  0
     Eigenvalues ---    0.00322   0.00323   0.00341   0.00342   0.00343
     Eigenvalues ---    0.00345   0.00348   0.00366   0.00367   0.00369
     Eigenvalues ---    0.00370   0.00386   0.00497   0.00640   0.00745
     Eigenvalues ---    0.00747   0.01026   0.01605   0.01607   0.02248
     Eigenvalues ---    0.02858   0.03233   0.03235   0.03248   0.03454
     Eigenvalues ---    0.03463   0.03486   0.03508   0.03543   0.03673
     Eigenvalues ---    0.03678   0.03679   0.03968   0.04048   0.04144
     Eigenvalues ---    0.04742   0.04755   0.04765   0.04811   0.04813
     Eigenvalues ---    0.04813   0.04835   0.04871   0.04874   0.04876
     Eigenvalues ---    0.04879   0.05424   0.05450   0.05483   0.05633
     Eigenvalues ---    0.05698   0.08075   0.08076   0.08104   0.08310
     Eigenvalues ---    0.08379   0.08423   0.08444   0.08522   0.08795
     Eigenvalues ---    0.08843   0.08844   0.09438   0.09442   0.09458
     Eigenvalues ---    0.12011   0.12012   0.12032   0.12186   0.12239
     Eigenvalues ---    0.12274   0.12283   0.12332   0.12538   0.12568
     Eigenvalues ---    0.12570   0.12850   0.12906   0.12946   0.15997
     Eigenvalues ---    0.16000   0.16000   0.16000   0.16000   0.16000
     Eigenvalues ---    0.21899   0.21899   0.21899   0.21899   0.21912
     Eigenvalues ---    0.21914   0.21916   0.21916   0.21927   0.21942
     Eigenvalues ---    0.21958   0.21968   0.21972   0.22000   0.22001
     Eigenvalues ---    0.22039   0.24995   0.25000   0.29094   0.29106
     Eigenvalues ---    0.29228   0.29236   0.29244   0.29255   0.29275
     Eigenvalues ---    0.29401   0.29411   0.29420   0.29427   0.29544
     Eigenvalues ---    0.30331   0.31402   0.32213   0.32230   0.33941
     Eigenvalues ---    0.33941   0.33963   0.33966   0.33968   0.33970
     Eigenvalues ---    0.33976   0.33976   0.33983   0.33987   0.33996
     Eigenvalues ---    0.34000   0.34011   0.34013   0.34030   0.34043
     Eigenvalues ---    0.34049   0.34051   0.34051   0.34066   0.34075
     Eigenvalues ---    0.34078   0.34083   0.34121   0.34155   0.34274
     Eigenvalues ---    0.34299   0.34302   0.34379   0.34389   0.34521
     Eigenvalues ---    0.34918   0.34921   0.51204   0.53369   0.56785
     Eigenvalues ---    0.94636
 RFO step:  Lambda=-4.14002436D-02 EMin= 3.21615826D-03
 Linear search not attempted -- first point.
 Maximum step size (   0.300) exceeded in Quadratic search.
    -- Step size scaled by   0.940
 Iteration  1 RMS(Cart)=  0.33380086 RMS(Int)=  0.02692239
 Iteration  2 RMS(Cart)=  0.32029864 RMS(Int)=  0.01968771
 Iteration  3 RMS(Cart)=  0.36023347 RMS(Int)=  0.01256114
 Iteration  4 RMS(Cart)=  0.38009731 RMS(Int)=  0.00581734
 Iteration  5 RMS(Cart)=  0.02302412 RMS(Int)=  0.00053663
 Iteration  6 RMS(Cart)=  0.00005492 RMS(Int)=  0.00053613
 Iteration  7 RMS(Cart)=  0.00000004 RMS(Int)=  0.00053613
 Iteration  1 RMS(Cart)=  0.35012391 RMS(Int)=  0.02310718
 Iteration  2 RMS(Cart)=  0.34337886 RMS(Int)=  0.01569554
 Iteration  3 RMS(Cart)=  0.41720758 RMS(Int)=  0.00907281
 Iteration  4 RMS(Cart)=  0.14612621 RMS(Int)=  0.00099925
 Iteration  5 RMS(Cart)=  0.00379716 RMS(Int)=  0.00043326
 Iteration  6 RMS(Cart)=  0.00000229 RMS(Int)=  0.00043326
 Iteration  7 RMS(Cart)=  0.00000000 RMS(Int)=  0.00043326
 ITry= 2 IFail=0 DXMaxC= 6.52D+00 DCOld= 7.28D+00 DXMaxT= 3.00D-01 DXLimC= 3.00D+00 Rises=F
 Iteration  1 RMS(Cart)=  0.36529679 RMS(Int)=  0.01938601
 Iteration  2 RMS(Cart)=  0.37075893 RMS(Int)=  0.01197890
 Iteration  3 RMS(Cart)=  0.38042805 RMS(Int)=  0.00555732
 Iteration  4 RMS(Cart)=  0.02165076 RMS(Int)=  0.00034213
 Iteration  5 RMS(Cart)=  0.00005224 RMS(Int)=  0.00034153
 Iteration  6 RMS(Cart)=  0.00000002 RMS(Int)=  0.00034153
 ITry= 3 IFail=0 DXMaxC= 5.75D+00 DCOld= 6.52D+00 DXMaxT= 3.00D-01 DXLimC= 3.00D+00 Rises=F
 Iteration  1 RMS(Cart)=  0.37810487 RMS(Int)=  0.01579620
 Iteration  2 RMS(Cart)=  0.39672342 RMS(Int)=  0.00885901
 Iteration  3 RMS(Cart)=  0.20252802 RMS(Int)=  0.00164868
 Iteration  4 RMS(Cart)=  0.00640746 RMS(Int)=  0.00026087
 Iteration  5 RMS(Cart)=  0.00000449 RMS(Int)=  0.00026087
 Iteration  6 RMS(Cart)=  0.00000000 RMS(Int)=  0.00026087
 ITry= 4 IFail=0 DXMaxC= 5.00D+00 DCOld= 5.75D+00 DXMaxT= 3.00D-01 DXLimC= 3.00D+00 Rises=F
 Iteration  1 RMS(Cart)=  0.38612001 RMS(Int)=  0.01240644
 Iteration  2 RMS(Cart)=  0.39949524 RMS(Int)=  0.00642108
 Iteration  3 RMS(Cart)=  0.05512898 RMS(Int)=  0.00022669
 Iteration  4 RMS(Cart)=  0.00062601 RMS(Int)=  0.00019119
 Iteration  5 RMS(Cart)=  0.00000014 RMS(Int)=  0.00019119
 ITry= 5 IFail=0 DXMaxC= 4.24D+00 DCOld= 5.00D+00 DXMaxT= 3.00D-01 DXLimC= 3.00D+00 Rises=F
 Iteration  1 RMS(Cart)=  0.38469317 RMS(Int)=  0.00931696
 Iteration  2 RMS(Cart)=  0.31201567 RMS(Int)=  0.00352978
 Iteration  3 RMS(Cart)=  0.01333906 RMS(Int)=  0.00013269
 Iteration  4 RMS(Cart)=  0.00002161 RMS(Int)=  0.00013245
 Iteration  5 RMS(Cart)=  0.00000000 RMS(Int)=  0.00013245
 ITry= 6 IFail=0 DXMaxC= 3.50D+00 DCOld= 4.24D+00 DXMaxT= 3.00D-01 DXLimC= 3.00D+00 Rises=F
 Iteration  1 RMS(Cart)=  0.36680554 RMS(Int)=  0.00659988
 Iteration  2 RMS(Cart)=  0.19031258 RMS(Int)=  0.00133333
 Iteration  3 RMS(Cart)=  0.00498997 RMS(Int)=  0.00008457
 Iteration  4 RMS(Cart)=  0.00000266 RMS(Int)=  0.00008456
 Iteration  5 RMS(Cart)=  0.00000000 RMS(Int)=  0.00008456
 ITry= 7 IFail=0 DXMaxC= 2.77D+00 DCOld= 3.50D+00 DXMaxT= 3.00D-01 DXLimC= 3.00D+00 Rises=F
 Variable       Old X    -DE/DX   Delta X   Delta X   Delta X     New X
                                 (Linear)    (Quad)   (Total)
    R1        2.56611  -0.01270   0.00000  -0.02076  -0.00831   2.55780
    R2        1.85370  -0.01712   0.00000  -0.02910  -0.01164   1.84206
    R3        2.30867  -0.03765   0.00000  -0.03584  -0.01434   2.29433
    R4        2.89154  -0.00179   0.00000  -0.00501  -0.00200   2.88953
    R5        2.89530  -0.00452   0.00000  -0.01275  -0.00510   2.89020
    R6        2.06695   0.00684   0.00000   0.01670   0.00668   2.07363
    R7        2.07307   0.00415   0.00000   0.01022   0.00409   2.07716
    R8        2.89807  -0.00287   0.00000  -0.00811  -0.00324   2.89482
    R9        2.07312   0.00238   0.00000   0.00586   0.00234   2.07547
   R10        2.07190   0.00363   0.00000   0.00893   0.00357   2.07547
   R11        2.89514  -0.00413   0.00000  -0.01164  -0.00466   2.89048
   R12        2.07371   0.00397   0.00000   0.00979   0.00392   2.07762
   R13        2.07380   0.00372   0.00000   0.00917   0.00367   2.07747
   R14        2.89134  -0.00008   0.00000  -0.00022  -0.00009   2.89125
   R15        2.89475  -0.00204   0.00000  -0.00576  -0.00230   2.89244
   R16        2.07219   0.00320   0.00000   0.00787   0.00315   2.07534
   R17        2.07248   0.00357   0.00000   0.00879   0.00351   2.07599
   R18        2.89173  -0.00037   0.00000  -0.00104  -0.00042   2.89132
   R19        2.07257   0.00285   0.00000   0.00701   0.00281   2.07537
   R20        2.07280   0.00336   0.00000   0.00828   0.00331   2.07611
   R21        2.89783  -0.00498   0.00000  -0.01409  -0.00564   2.89219
   R22        2.07431   0.00226   0.00000   0.00557   0.00223   2.07653
   R23        2.07352   0.00259   0.00000   0.00639   0.00256   2.07608
   R24        2.89433   0.00066   0.00000   0.00185   0.00074   2.89508
   R25        2.07430   0.00258   0.00000   0.00637   0.00255   2.07685
   R26        2.07336   0.00423   0.00000   0.01043   0.00417   2.07753
   R27        2.89496  -0.00141   0.00000  -0.00398  -0.00159   2.89337
   R28        2.07243   0.00317   0.00000   0.00780   0.00312   2.07555
   R29        2.07244   0.00318   0.00000   0.00783   0.00313   2.07557
   R30        2.89121  -0.00285   0.00000  -0.00798  -0.00319   2.88802
   R31        2.07385   0.00385   0.00000   0.00950   0.00380   2.07765
   R32        2.07370   0.00544   0.00000   0.01342   0.00537   2.07907
   R33        2.83755  -0.00450   0.00000  -0.01165  -0.00466   2.83289
   R34        2.07387   0.00298   0.00000   0.00736   0.00294   2.07681
   R35        2.06460   0.00325   0.00000   0.00790   0.00316   2.06776
   R36        2.83726  -0.00163   0.00000  -0.00421  -0.00169   2.83557
   R37        2.06678   0.00400   0.00000   0.00977   0.00391   2.07069
   R38        2.07330   0.00345   0.00000   0.00850   0.00340   2.07670
   R39        2.88882  -0.00121   0.00000  -0.00339  -0.00135   2.88747
   R40        2.07393   0.00137   0.00000   0.00338   0.00135   2.07528
   R41        2.07359   0.00134   0.00000   0.00330   0.00132   2.07491
   R42        2.87308   0.00569   0.00000   0.01552   0.00621   2.87928
   R43        2.07204   0.00306   0.00000   0.00753   0.00301   2.07506
   R44        2.07199   0.00309   0.00000   0.00759   0.00304   2.07502
   R45        2.53579  -0.01401   0.00000  -0.02163  -0.00865   2.52714
   R46        2.05804   0.00362   0.00000   0.00872   0.00349   2.06153
   R47        2.05808   0.00349   0.00000   0.00841   0.00336   2.06144
   R48        2.85252  -0.00194   0.00000  -0.00512  -0.00205   2.85047
   R49        2.07069   0.00223   0.00000   0.00549   0.00219   2.07289
   R50        2.07126   0.00172   0.00000   0.00423   0.00169   2.07295
   R51        2.06871   0.00214   0.00000   0.00525   0.00210   2.07080
   R52        2.06829   0.00119   0.00000   0.00292   0.00117   2.06946
   R53        2.06824   0.00218   0.00000   0.00534   0.00214   2.07038
    A1        1.95262  -0.01181   0.00000  -0.05516  -0.02206   1.93056
    A2        1.97865  -0.00160   0.00000  -0.00512  -0.00210   1.97656
    A3        1.92838  -0.00206   0.00000  -0.02361  -0.00947   1.91891
    A4        1.90199   0.00190   0.00000   0.01872   0.00747   1.90946
    A5        1.89062   0.00031   0.00000  -0.00790  -0.00321   1.88741
    A6        1.89866   0.00230   0.00000   0.02337   0.00932   1.90798
    A7        1.86174  -0.00076   0.00000  -0.00493  -0.00194   1.85981
    A8        1.97619  -0.00764   0.00000  -0.02961  -0.01199   1.96420
    A9        1.90493   0.00500   0.00000   0.03962   0.01589   1.92082
   A10        1.91172  -0.00098   0.00000  -0.02861  -0.01163   1.90008
   A11        1.88980   0.00451   0.00000   0.03759   0.01506   1.90487
   A12        1.91937   0.00067   0.00000  -0.01806  -0.00746   1.91191
   A13        1.85792  -0.00106   0.00000   0.00243   0.00107   1.85899
   A14        2.02117  -0.01382   0.00000  -0.05089  -0.02035   2.00082
   A15        1.89846   0.00376   0.00000   0.00613   0.00239   1.90085
   A16        1.89531   0.00431   0.00000   0.01981   0.00799   1.90330
   A17        1.89626   0.00349   0.00000   0.00541   0.00210   1.89836
   A18        1.88982   0.00576   0.00000   0.02879   0.01156   1.90138
   A19        1.85598  -0.00279   0.00000  -0.00611  -0.00248   1.85350
   A20        1.94096   0.00230   0.00000   0.00983   0.00392   1.94489
   A21        1.91669  -0.00015   0.00000   0.00437   0.00173   1.91842
   A22        1.91168  -0.00119   0.00000  -0.00856  -0.00342   1.90826
   A23        1.90968   0.00015   0.00000   0.00662   0.00264   1.91232
   A24        1.91179  -0.00104   0.00000  -0.00723  -0.00289   1.90890
   A25        1.87172  -0.00018   0.00000  -0.00562  -0.00225   1.86947
   A26        1.94310   0.00476   0.00000   0.01908   0.00763   1.95073
   A27        1.91114  -0.00090   0.00000   0.00062   0.00024   1.91138
   A28        1.91360  -0.00178   0.00000  -0.00850  -0.00340   1.91020
   A29        1.91105  -0.00105   0.00000  -0.00018  -0.00009   1.91097
   A30        1.91335  -0.00149   0.00000  -0.00671  -0.00268   1.91067
   A31        1.87015   0.00027   0.00000  -0.00525  -0.00211   1.86805
   A32        2.01620  -0.03627   0.00000  -0.13724  -0.05485   1.96135
   A33        1.89114   0.00927   0.00000   0.02766   0.01111   1.90225
   A34        1.89888   0.01332   0.00000   0.04889   0.01936   1.91825
   A35        1.90651   0.01307   0.00000   0.04887   0.01949   1.92600
   A36        1.89108   0.00810   0.00000   0.01834   0.00737   1.89845
   A37        1.85329  -0.00539   0.00000   0.00389   0.00125   1.85454
   A38        1.97150  -0.00058   0.00000  -0.00154  -0.00064   1.97085
   A39        1.90671   0.00113   0.00000   0.01334   0.00532   1.91203
   A40        1.90482  -0.00011   0.00000  -0.00709  -0.00285   1.90196
   A41        1.90741   0.00141   0.00000   0.01407   0.00562   1.91303
   A42        1.91129  -0.00141   0.00000  -0.01544  -0.00619   1.90510
   A43        1.85872  -0.00044   0.00000  -0.00342  -0.00135   1.85737
   A44        1.94093   0.00248   0.00000   0.01072   0.00429   1.94521
   A45        1.91549  -0.00113   0.00000  -0.00455  -0.00183   1.91366
   A46        1.91213  -0.00077   0.00000  -0.00350  -0.00140   1.91073
   A47        1.90998   0.00014   0.00000   0.00430   0.00172   1.91171
   A48        1.91247  -0.00056   0.00000  -0.00084  -0.00033   1.91214
   A49        1.87152  -0.00026   0.00000  -0.00677  -0.00271   1.86881
   A50        2.02014  -0.01041   0.00000  -0.03803  -0.01520   2.00493
   A51        1.89168   0.00383   0.00000   0.01716   0.00688   1.89856
   A52        1.89521   0.00318   0.00000   0.00891   0.00354   1.89876
   A53        1.89506   0.00335   0.00000   0.01388   0.00557   1.90064
   A54        1.89983   0.00283   0.00000   0.00642   0.00256   1.90239
   A55        1.85505  -0.00226   0.00000  -0.00617  -0.00249   1.85256
   A56        1.97246  -0.01241   0.00000  -0.04931  -0.02017   1.95228
   A57        1.88437   0.00856   0.00000   0.06724   0.02699   1.91136
   A58        1.91612  -0.00022   0.00000  -0.03473  -0.01452   1.90160
   A59        1.87452   0.00779   0.00000   0.06526   0.02623   1.90074
   A60        1.96614  -0.00078   0.00000  -0.04317  -0.01790   1.94824
   A61        1.84333  -0.00144   0.00000   0.00715   0.00310   1.84644
   A62        1.96961  -0.00787   0.00000  -0.03062  -0.01235   1.95726
   A63        1.90529   0.00024   0.00000  -0.01627  -0.00666   1.89863
   A64        1.90362   0.00378   0.00000   0.02797   0.01123   1.91485
   A65        1.94850   0.00028   0.00000  -0.01758  -0.00720   1.94130
   A66        1.88426   0.00498   0.00000   0.03658   0.01468   1.89893
   A67        1.84804  -0.00079   0.00000   0.00417   0.00172   1.84975
   A68        1.96288  -0.00314   0.00000  -0.01070  -0.00428   1.95861
   A69        1.91014   0.00139   0.00000   0.00671   0.00269   1.91283
   A70        1.91238   0.00131   0.00000   0.00566   0.00226   1.91464
   A71        1.90756   0.00090   0.00000   0.00298   0.00120   1.90876
   A72        1.90960   0.00082   0.00000   0.00194   0.00078   1.91038
   A73        1.85833  -0.00116   0.00000  -0.00637  -0.00255   1.85578
   A74        1.98369  -0.00679   0.00000  -0.02406  -0.00961   1.97408
   A75        1.90516   0.00169   0.00000   0.00340   0.00137   1.90653
   A76        1.90618   0.00121   0.00000   0.00152   0.00063   1.90680
   A77        1.90202   0.00269   0.00000   0.01173   0.00468   1.90670
   A78        1.89858   0.00340   0.00000   0.01664   0.00665   1.90523
   A79        1.86449  -0.00194   0.00000  -0.00843  -0.00339   1.86111
   A80        2.23076  -0.02112   0.00000  -0.07561  -0.03045   2.20032
   A81        2.01206   0.00913   0.00000   0.03179   0.01252   2.02458
   A82        2.04007   0.01212   0.00000   0.04590   0.01816   2.05823
   A83        2.23267  -0.02009   0.00000  -0.07234  -0.02909   2.20357
   A84        2.00952   0.00927   0.00000   0.03245   0.01282   2.02234
   A85        2.04099   0.01080   0.00000   0.03958   0.01567   2.05666
   A86        1.97412  -0.00503   0.00000  -0.01515  -0.00604   1.96807
   A87        1.91272   0.00339   0.00000   0.01843   0.00736   1.92008
   A88        1.90710   0.00454   0.00000   0.02565   0.01025   1.91735
   A89        1.88331   0.00066   0.00000  -0.00147  -0.00058   1.88273
   A90        1.88605  -0.00006   0.00000  -0.00447  -0.00177   1.88428
   A91        1.89908  -0.00365   0.00000  -0.02452  -0.00985   1.88923
   A92        1.93429   0.00090   0.00000   0.00355   0.00142   1.93571
   A93        1.92603   0.00266   0.00000   0.01363   0.00545   1.93147
   A94        1.93581   0.00062   0.00000   0.00237   0.00095   1.93676
   A95        1.88786  -0.00158   0.00000  -0.00635  -0.00255   1.88532
   A96        1.89021  -0.00139   0.00000  -0.00876  -0.00350   1.88670
   A97        1.88815  -0.00139   0.00000  -0.00526  -0.00211   1.88604
   A98        2.15886  -0.00514   0.00000  -0.01641  -0.00658   2.15228
   A99        1.92127   0.00574   0.00000   0.01868   0.00745   1.92873
   A100       2.20275  -0.00056   0.00000  -0.00166  -0.00068   2.20207
    D1        0.00935  -0.00053   0.00000  -0.00991  -0.00395   0.00541
    D2        3.12629   0.00091   0.00000   0.01548   0.00618   3.13247
    D3       -3.08623  -0.00599   0.00000  -0.08522  -0.03403  -3.12026
    D4       -0.97995  -0.00175   0.00000  -0.02897  -0.01157  -0.99152
    D5        1.04782  -0.00075   0.00000  -0.01968  -0.00793   1.03989
    D6        1.07102  -0.00373   0.00000  -0.05386  -0.02151   1.04951
    D7       -3.10589   0.00050   0.00000   0.00239   0.00095  -3.10494
    D8       -1.07812   0.00150   0.00000   0.01168   0.00458  -1.07353
    D9       -0.96913  -0.00276   0.00000  -0.04542  -0.01811  -0.98724
   D10        1.13714   0.00147   0.00000   0.01083   0.00436   1.14150
   D11       -3.11827   0.00248   0.00000   0.02012   0.00799  -3.11028
   D12        3.07893   0.00435   0.00000   0.06069   0.02427   3.10320
   D13       -1.06365   0.00208   0.00000   0.03637   0.01456  -1.04909
   D14        0.94927   0.00308   0.00000   0.04302   0.01722   0.96649
   D15       -1.05736   0.00086   0.00000   0.02120   0.00847  -1.04889
   D16        1.08325  -0.00141   0.00000  -0.00312  -0.00124   1.08201
   D17        3.09617  -0.00040   0.00000   0.00353   0.00142   3.09759
   D18        0.95996   0.00135   0.00000   0.02353   0.00939   0.96935
   D19        3.10057  -0.00092   0.00000  -0.00079  -0.00032   3.10026
   D20       -1.16969   0.00008   0.00000   0.00586   0.00234  -1.16735
   D21       -1.03436   0.00722   0.00000   0.10387   0.04160  -0.99276
   D22        3.10400   0.00833   0.00000   0.11465   0.04585  -3.13334
   D23        1.09625   0.00277   0.00000   0.06971   0.02774   1.12400
   D24        3.13400   0.00266   0.00000   0.04649   0.01867  -3.13051
   D25        0.98918   0.00377   0.00000   0.05727   0.02292   1.01210
[...]
 004989,0.00001405,0.00000675,-0.00002536,0.00001241,-0.00000338,0.0000
 0186,-0.00000321,-0.00000831,0.00000020,-0.00000097,-0.00001087,-0.000
 00087,-0.00000803,-0.00000403,0.00001967,0.00000898,0.00024710,0.00017
 083,0.00024122,-0.00018268,0.00078256,0.00009976,-0.00016378,0.0000109
 3,0.00052611,-0.00041194,0.00050653,0.00000257,-0.00000858,-0.00000281
 ,-0.00000084,0.00000652,-0.00000317,0.00000165,0.00000483,-0.00001183,
 0.00000282,-0.00001013,0.00000153,-0.00011411,-0.00021351,-0.00127068,
 0.00011659,0.00027222,0.00004310,-0.00047168,0.00006798,-0.00017595,0.
 00320421,-0.00110783,-0.00190348,-0.00000521,-0.00000448,-0.00000244,-
 0.00000201,-0.00000215,-0.00000015,0.00004481,0.00007248,0.00072976,0.
 00017208,0.00011976,0.00019002,-0.02485436,-0.12356051,0.12107731,0.00
 017448,0.00010347,0.00001887,-0.00139485,-0.00036167,-0.00067176,-0.00
 033490,-0.00001685,0.00060307,-0.00013199,0.00008219,-0.00022167,-0.00
 072507,0.00070892,-0.00146591,-0.00000431,-0.00001661,-0.00004680,-0.0
 0003236,-0.00007373,0.00005075,-0.00003438,-0.00000198,0.00009824,-0.0
 0000651,-0.00003841,0.00002418,-0.00003996,-0.00007022,0.00006770,-0.0
 0278090,-0.00054256,0.00508998,-0.00000388,-0.00000850,-0.00000469,0.0
 0001337,0.00000118,-0.00001106,0.00012137,0.00013712,-0.00017770,-0.01
 899017,0.00575988,-0.01439883,0.00000110,-0.00000105,-0.00002458,-0.00
 000706,0.00000743,-0.00000440,0.00015567,0.00023566,-0.00020619,-0.227
 84755,0.04588285,-0.11420181,-0.00073464,-0.00096171,-0.00009768,0.000
 02139,0.00001579,-0.00001350,0.00001494,-0.00002208,-0.00001468,0.0000
 1083,-0.00000793,-0.00000090,0.00000161,0.00000254,0.00001557,0.000005
 38,0.00007194,0.00008279,0.00000736,-0.00008122,-0.00001016,0.00000872
 ,0.00002740,0.00000782,0.00000357,-0.00001267,0.00004606,0.00001760,0.
 00003283,-0.00000773,-0.00001837,-0.00000584,-0.00005849,-0.00005232,0
 .00001503,-0.00000856,0.00000648,0.00000197,-0.00000939,0.00000136,0.0
 0002020,0.00000442,0.00001144,-0.00000196,-0.00002992,0.00005515,-0.00
 004818,0.00000035,-0.00003500,0.00000164,0.00000229,0.00027830,-0.0001
 9244,0.00010092,0.00021945,0.00006814,0.00003383,-0.00001252,0.0000129
 4,-0.00000203,0.00000592,-0.00000904,0.00001285,0.00000123,-0.00000755
 ,0.00001694,-0.00000112,0.00001459,-0.00000059,-0.00006583,0.00038500,
 0.00016763,-0.00004901,-0.00008920,0.00002590,0.00089861,0.00034666,-0
 .00005264,0.00007776,-0.00059628,-0.00009043,-0.00000064,-0.00000123,0
 .00000741,0.00000224,0.00000215,0.00000763,0.00008716,0.00025959,0.000
 09468,-0.00004542,0.00004072,0.00005537,0.00506897,-0.00127341,0.00368
 395,0.24915144,0.00070406,-0.00008913,-0.00055993,0.00041370,0.0004877
 6,-0.00043367,0.00005449,0.00001348,-0.00012901,0.00003184,-0.00001775
 ,0.00005062,0.00023830,0.00038975,0.00040048,-0.00001527,0.00002392,0.
 00007112,-0.00009715,0.00002125,-0.00010622,0.00000503,-0.00000370,-0.
 00002547,-0.00001229,0.00001136,-0.00002692,0.00030177,0.00001743,0.00
 050624,0.00085623,0.00021439,-0.00102113,0.00000208,0.00000161,0.00000
 366,-0.00001055,0.00000268,0.00001074,0.00003037,-0.00020027,0.0002487
 8,0.00193650,-0.00190840,0.00141180,-0.00000209,0.00000226,0.00001111,
 0.00000393,-0.00000236,-0.00000495,0.00007354,0.00015737,0.00003757,0.
 04498157,-0.05773886,0.02914001,-0.00185363,-0.00110391,0.00097987,-0.
 00000126,-0.00000416,0.00001482,-0.00000153,0.00000438,0.00000148,-0.0
 0000548,-0.00000307,0.00000374,0.00000206,-0.00000106,-0.00000815,-0.0
 0005437,-0.00002066,-0.00000311,0.00006399,-0.00000915,-0.00006718,-0.
 00000294,-0.00001381,-0.00000857,-0.00002509,-0.00000073,-0.00003735,0
 .00002985,-0.00002561,-0.00003591,0.00001373,0.00002495,0.00003747,0.0
 0001331,-0.00000297,0.00000219,-0.00000279,-0.00000180,0.00000156,0.00
 000570,-0.00000905,-0.00000557,-0.00000380,0.00000005,0.00001190,-0.00
 007910,-0.00006333,-0.00017006,-0.00008713,0.00000440,-0.00028145,0.00
 019122,0.00000485,0.00027159,-0.00031025,0.00038347,-0.00017909,0.0000
 0348,-0.00000501,-0.00000012,-0.00000197,0.00000340,-0.00000387,-0.000
 00180,0.00000186,-0.00000769,0.00000026,-0.00000550,0.00000070,0.00049
 412,-0.00077334,-0.00056527,-0.00001795,0.00021273,-0.00004439,0.00024
 501,-0.00003726,0.00006957,-0.00019395,-0.00001519,-0.00029783,-0.0000
 0075,-0.00000056,-0.00000215,-0.00000038,-0.00000099,-0.00000248,0.000
 16756,-0.00003231,0.00022733,0.00001851,0.00014373,0.00004221,0.023183
 59,-0.00504006,0.01360049,-0.05057015,0.05919498,0.00035399,-0.0000926
 8,-0.00040735,-0.00048459,-0.00010511,-0.00088730,0.00028837,-0.000020
 96,-0.00040091,0.00009654,-0.00005354,0.00012316,0.00099303,-0.0004784
 8,0.00099360,0.00000546,-0.00000614,-0.00000578,0.00004382,0.00002440,
 0.00002560,0.00003158,-0.00000134,-0.00005369,0.00000863,0.00001611,-0
 .00000400,-0.00003127,0.00001580,-0.00021215,0.00280087,0.00004275,-0.
 00314456,0.00000329,0.00000470,-0.00000045,-0.00000707,-0.00000414,0.0
 0000472,-0.00012361,-0.00009658,-0.00003298,0.01847447,-0.00568887,0.0
 1297266,-0.00000333,0.00000148,0.00000884,0.00000603,-0.00000054,-0.00
 000354,0.00004414,0.00016734,0.00001178,-0.11587164,0.03034455,-0.1193
 7421,-0.00028001,-0.00015311,0.00079671,-0.00001728,-0.00001045,-0.000
 00022,-0.00000730,0.00002184,0.00000321,-0.00000488,0.00000561,0.00000
 154,-0.00000137,-0.00000236,-0.00000562,-0.00008498,-0.00003592,0.0000
 1213,-0.00004606,0.00004370,0.00004210,-0.00000270,-0.00000490,-0.0000
 0278,0.00001000,0.00000807,-0.00000760,-0.00002294,-0.00000399,0.00002
 165,0.00000551,0.00000287,0.00001914,0.00002383,-0.00000573,0.00000778
 ,-0.00000185,0.00000024,0.00000277,-0.00000347,-0.00000568,0.00000285,
 -0.00000290,0.00000075,0.00001115,-0.00000206,0.00003976,0.00003456,0.
 00003612,-0.00003680,0.00007623,0.00020654,0.00022910,0.00007761,-0.00
 002202,-0.00019294,-0.00009582,0.00000285,-0.00000488,0.00000010,-0.00
 000362,0.00000174,-0.00000268,0.00000142,0.00000387,-0.00000555,0.0000
 0035,-0.00000442,-0.00000077,0.00013014,-0.00036753,-0.00004510,0.0000
 3942,-0.00003542,-0.00000541,-0.00063766,-0.00033610,0.00080757,-0.000
 68186,0.00041168,0.00043566,-0.00000126,-0.00000032,-0.00000050,-0.000
 00150,-0.00000061,-0.00000027,-0.00011016,0.00021348,-0.00019279,0.000
 00332,-0.00003680,-0.00008204,-0.01235943,0.00142776,-0.00860363,0.122
 66937,-0.03107271,0.12746886,-0.00042711,0.00012284,0.00039416,-0.0006
 2443,-0.00048948,0.00010704,0.00000092,-0.00008379,-0.00009238,0.00001
 632,-0.00001009,0.00001487,-0.00021204,-0.00014797,0.00007141,0.000048
 87,0.00003422,-0.00001404,-0.00008635,-0.00010829,0.00009930,0.0000018
 9,0.00000262,-0.00000655,0.00000087,-0.00000893,0.00000773,-0.00008286
 ,0.00001033,-0.00001783,0.00182322,0.00031331,0.00072044,-0.00000177,0
 .00000015,0.00000012,0.00000795,0.00000399,-0.00000461,0.00008747,0.00
 004338,-0.00024676,0.00372054,0.02074303,0.01879987,0.00000229,-0.0000
 0011,0.00000201,-0.00000065,-0.00000218,0.00000406,0.00002330,0.000042
 12,-0.00004719,-0.05290173,-0.03028519,-0.02848620,0.00078620,0.000294
 90,-0.00077937,0.00000173,0.00000143,0.00000024,-0.00004693,0.00000907
 ,-0.00002731,0.00000030,0.00000328,0.00000177,0.00000237,-0.00000458,-
 0.00000295,0.00003525,-0.00011532,-0.00021104,0.00001139,0.00000854,0.
 00003111,-0.00001682,0.00000836,-0.00001701,-0.00000628,-0.00000691,-0
 .00000809,0.00000894,0.00002843,-0.00001729,0.00005942,-0.00001019,-0.
 00003285,0.00000547,-0.00000108,-0.00000021,-0.00000202,-0.00000008,0.
 00000038,0.00000099,-0.00000332,-0.00000256,0.00000715,0.00000490,0.00
 000128,0.00003942,-0.00001809,0.00000892,-0.00002223,0.00001465,-0.000
 00882,-0.00038131,-0.00033205,-0.00060944,-0.00006077,-0.00003717,-0.0
 0003096,0.00000189,-0.00000078,0.00000054,0.00000039,0.00000127,-0.000
 00225,-0.00000223,0.00000015,-0.00000213,-0.00000253,-0.00000055,-0.00
 000134,-0.00030210,-0.00006132,0.00022931,-0.00003515,-0.00014653,0.00
 003332,-0.00405165,0.00072235,0.00305930,0.00128349,-0.00030020,-0.000
 66632,0.00000115,0.00000086,-0.00000192,0.00000017,-0.00000075,-0.0000
 0186,0.00006330,0.00004801,-0.00011517,-0.00001310,-0.00005885,-0.0000
 4127,-0.00194897,-0.00248439,-0.00287261,-0.00304520,-0.02059390,-0.01
 553311,0.05618240,-0.00023816,0.00014043,0.00007989,-0.00004599,0.0002
 3251,-0.00001673,0.00002574,-0.00003225,-0.00004410,0.00001544,0.00000
 261,0.00001271,0.00028769,0.00019819,0.00025453,-0.00000367,-0.0000012
 9,-0.00007796,-0.00003756,-0.00001008,0.00000729,-0.00000044,-0.000007
 93,-0.00000350,0.00000756,-0.00001624,0.00003469,-0.00005030,0.0000492
 8,0.00018481,-0.00033895,-0.00031028,-0.00017472,0.00000547,0.00000398
 ,-0.00000390,0.00001680,-0.00000315,-0.00002462,0.00012292,0.00018165,
 -0.00010201,-0.00065868,-0.00127963,-0.00060111,0.00000688,-0.00000980
 ,-0.00000991,-0.00000496,-0.00000252,0.00002453,-0.00000091,-0.0000894
 2,0.00000837,-0.02994026,-0.18729486,-0.12709036,0.00049607,-0.0003378
 7,0.00011007,-0.00000236,-0.00000645,-0.00000579,0.00002811,0.00001909
 ,0.00001292,-0.00000123,0.00000011,-0.00000093,-0.00000448,0.00000235,
 0.00000984,-0.00013884,0.00002498,0.00011215,-0.00001659,-0.00002099,-
 0.00000557,0.00000053,-0.00000327,0.00000671,-0.00000152,0.00000948,0.
 00001172,0.00003789,-0.00002395,-0.00002618,-0.00003167,0.00000005,0.0
 0003572,0.00000153,-0.00000060,0.00000107,0.00000281,0.00000791,0.0000
 0355,-0.00000097,0.00000594,0.00000165,-0.00000135,-0.00000105,-0.0000
 0675,-0.00001923,-0.00012819,-0.00009140,-0.00014909,0.00007494,-0.000
 25923,0.00065057,-0.00002750,0.00012052,-0.00003446,-0.00001429,-0.000
 09259,0.00000444,0.00000095,0.00000276,-0.00000440,-0.00000303,-0.0000
 0232,0.00000040,0.00000118,0.00000474,-0.00000080,0.00000089,-0.000000
 77,0.00003609,-0.00015022,0.00029063,-0.00006999,-0.00016079,0.0000223
 4,0.00023819,0.00120371,0.00026193,0.00041439,0.00080047,0.00023002,0.
 00000251,0.00000489,-0.00000009,-0.00000024,0.00000288,-0.00000177,0.0
 0014191,0.00002948,-0.00023276,-0.00008375,-0.00004722,-0.00007892,-0.
 00436238,-0.01893744,-0.01851782,0.00077562,0.00570469,0.00574946,0.03
 291766,0.20024089,-0.00020166,0.00001971,0.00021561,-0.00035388,-0.000
 36306,0.00015241,0.00004223,0.00005562,-0.00000672,0.00000591,-0.00001
 096,0.00002848,0.00011149,0.00010486,0.00019078,-0.00004526,-0.0000476
 6,0.00001665,0.00011490,0.00011552,-0.00004446,0.00000066,-0.00000395,
 -0.00001435,-0.00000102,0.00001604,0.00000247,-0.00001365,0.00002099,-
 0.00013593,-0.00065243,0.00050406,0.00019837,0.00000006,0.00000345,0.0
 0000164,0.00000042,-0.00000444,-0.00000336,0.00005148,0.00021527,-0.00
 009579,-0.00303499,-0.01481165,-0.01527004,0.00000405,-0.00000446,-0.0
 0000020,-0.00000285,-0.00000281,0.00001437,0.00004368,0.00004334,-0.00
 004102,-0.02840398,-0.12672473,-0.16016813,0.00027236,0.00034161,-0.00
 053389,-0.00000451,0.00000029,0.00000217,0.00003565,-0.00001070,0.0000
 2203,-0.00000133,0.00000208,-0.00000673,-0.00000184,0.00000504,-0.0000
 0084,-0.00016160,0.00010596,0.00010036,0.00000449,0.00001594,-0.000063
 72,0.00002214,-0.00002197,0.00001836,0.00000932,0.00000905,-0.00000125
 ,-0.00003125,-0.00002455,0.00002896,-0.00007472,0.00000404,0.00003553,
 0.00001163,-0.00000426,-0.00000141,0.00000024,0.00000226,0.00000659,-0
 .00000184,-0.00000093,-0.00000101,-0.00001008,-0.00000391,0.00000347,0
 .00001847,0.00002096,0.00008706,0.00010439,-0.00000846,0.00011842,0.00
 053033,-0.00020085,0.00049334,0.00001561,0.00005556,0.00002370,0.00000
 598,-0.00000231,0.00000216,-0.00000163,0.00000222,-0.00000534,-0.00000
 104,0.00000196,-0.00000198,0.00000172,-0.00000414,0.00000069,0.0000719
 2,0.00017315,0.00000905,0.00001009,0.00000347,0.00003075,0.00390621,-0
 .00010136,-0.00146521,-0.00037671,0.00035710,0.00016213,0.00000183,0.0
 0000245,-0.00000295,-0.00000036,0.00000138,-0.00000388,-0.00007370,-0.
 00001446,0.00008881,0.00001189,0.00001614,0.00007484,0.00277482,0.0123
 6651,0.01160673,-0.00112885,-0.01207810,-0.01046221,0.02636433,0.13990
 217,0.17461869,-0.18029169,0.17608502,-0.08382050,0.00710311,-0.003997
 39,-0.00381656,0.00001113,0.00000383,-0.00003571,0.00000528,-0.0000076
 2,0.00002353,0.00001264,-0.00002027,0.00005016,-0.00002999,0.00000643,
 0.00004122,-0.00008636,0.00007629,-0.00014129,-0.00000322,0.00000111,-
 0.00001072,-0.00000786,0.00001075,-0.00000708,-0.00034805,-0.00006419,
 0.00049747,0.00002718,0.00001866,-0.00008236,-0.00000149,0.00000333,0.
 00000073,0.00000230,0.00000266,-0.00000347,-0.00027835,0.00115868,-0.0
 0127062,-0.00001059,-0.00002104,0.00012365,0.00000614,-0.00000513,0.00
 000447,-0.00000428,-0.00000670,0.00001883,-0.00329956,-0.00075285,0.00
 655851,-0.00004596,0.00006778,-0.00015667,-0.03540189,0.03919668,-0.01
 725494,-0.00000289,-0.00000035,0.00000196,0.00000041,0.00000188,0.0000
 0408,-0.00000184,0.00000098,-0.00000099,0.00000028,0.00000117,-0.00000
 209,-0.00000220,0.00000087,-0.00000365,-0.00000013,0.00000351,-0.00000
 414,0.00000079,-0.00000752,0.00000366,-0.00000415,0.00000046,-0.000008
 82,0.00000942,-0.00000296,-0.00001005,-0.00000693,-0.00000950,0.000005
 86,0.00001375,-0.00000403,-0.00000279,-0.00000200,0.00000112,0.0000043
 4,0.00000049,-0.00000374,-0.00000441,-0.00000379,-0.00000075,0.0000035
 9,0.00003778,-0.00002240,0.00002777,-0.00000469,-0.00001446,-0.0000267
 8,0.00000149,0.00000204,0.00000971,-0.00000568,0.00000053,0.00000419,0
 .00000781,-0.00000304,0.00000316,-0.00000178,0.00000334,-0.00000754,-0
 .00000272,0.00000044,-0.00000454,-0.00000072,-0.00000460,0.00000068,-0
 .00010414,-0.00005214,-0.00003444,-0.00003776,0.00006842,0.00003184,-0
 .00001919,0.00000660,-0.00000608,0.00002001,0.00001033,-0.00001811,0.0
 0000345,0.00000369,-0.00000555,-0.00000066,0.00000065,-0.00000690,0.00
 037550,-0.00043823,-0.00004831,0.00048400,0.00009162,-0.00007735,-0.00
 003591,0.00002090,-0.00001154,-0.00002894,-0.00012025,0.00007083,0.000
 04918,0.00000602,0.00003084,0.21190324,0.20549314,-0.27826548,0.148972
 61,-0.00455249,-0.00442502,0.00102820,0.00000387,0.00000343,-0.0000039
 6,0.00000058,0.00000184,0.00000353,0.00000517,0.00000259,0.00001219,0.
 00000486,0.00000555,0.00000591,-0.00000876,-0.00002158,0.00001629,0.00
 000175,0.00000168,-0.00000292,0.00000116,0.00000457,-0.00000198,0.0001
 5486,0.00002801,-0.00011273,0.00001076,0.00000676,-0.00002352,-0.00000
 015,-0.00000114,0.00000089,-0.00000385,0.00000006,0.00000517,0.0000133
 9,0.00053329,0.00054236,-0.00000192,-0.00000281,0.00003972,-0.00000202
 ,0.00000238,0.00000564,0.00000359,0.00000151,-0.00000827,0.00047335,0.
 00285318,0.00031213,0.00001422,-0.00002071,-0.00006705,0.00965892,0.00
 036471,-0.00164298,0.00000144,-0.00000241,0.00000421,-0.00000305,-0.00
 000220,-0.00000328,-0.00000060,-0.00000261,0.00000184,0.00000097,-0.00
 000088,-0.00000381,0.00000196,-0.00000220,-0.00000929,-0.00000456,-0.0
 0000545,0.00000176,0.00000190,-0.00000590,0.00000172,-0.00000289,0.000
 00045,-0.00000854,0.00000583,-0.00001454,-0.00001141,-0.00000426,-0.00
 000060,0.00001236,0.00000014,0.00000048,0.00000116,-0.00000083,-0.0000
 0315,-0.00000210,0.00000057,-0.00000315,-0.00000196,-0.00000163,-0.000
 00024,0.00000383,-0.00001002,-0.00000674,0.00000147,-0.00002911,0.0000
 0344,-0.00004122,-0.00001057,-0.00000514,-0.00000773,0.00000440,-0.000
 00568,0.00001080,-0.00000140,-0.00000103,-0.00000140,0.00000067,0.0000
 0090,0.00000096,0.00000008,0.00000062,-0.00000274,0.00000059,-0.000002
 77,0.00000103,0.00013192,-0.00001372,-0.00003647,-0.00003218,-0.000019
 27,0.00000643,0.00002288,-0.00001414,-0.00002994,-0.00001323,-0.000010
 49,0.00000305,-0.00000163,-0.00000104,0.,0.00000033,-0.00000118,0.0000
 0037,0.00032184,-0.00023992,0.00049904,-0.00031112,0.00051944,-0.00027
 341,0.00002654,-0.00001332,0.00003231,-0.00000103,0.00010322,0.0000819
 7,-0.00006775,-0.00002321,-0.00003850,-0.21129665,0.27869964,-0.114563
 54,0.16747187,-0.12176236,-0.00326439,0.00095241,-0.00495088,0.0000042
 1,0.00000108,-0.00000450,-0.00000067,-0.00000004,0.00000299,0.00000221
 ,0.00000487,0.00001372,0.00001515,-0.00000049,-0.00000274,0.00001902,-
 0.00002281,0.00001705,0.00000191,0.00000119,-0.00000151,0.00000170,0.0
 0000282,0.00000266,0.00018925,-0.00002856,-0.00015989,0.00001144,0.000
 00160,-0.00002100,-0.00000124,-0.00000117,0.00000128,0.00000099,-0.000
 00004,0.00000200,0.00061176,-0.00020899,0.00047956,-0.00001880,0.00000
 263,0.00003580,-0.00000082,0.00000273,0.00000124,-0.00000054,0.0000017
 9,-0.00000389,0.00332501,0.00136191,0.00082959,0.00004102,-0.00002041,
 -0.00004858,0.01379988,-0.02019081,0.01741294,0.00000084,0.00000141,0.
 00000137,-0.00000347,-0.00000311,-0.00000283,0.00000065,0.00000112,0.0
 0000046,0.00000040,-0.00000248,-0.00000214,0.00000099,-0.00000592,-0.0
 0000644,0.00000129,0.00000146,0.00000073,0.00000020,0.00000109,-0.0000
 0071,-0.00000488,-0.00000217,-0.00000625,0.00000736,-0.00001655,-0.000
 01094,0.00000477,0.00000647,0.00000639,0.00000131,0.00000016,0.0000000
 8,-0.00000114,-0.00000234,-0.00000142,0.00000030,-0.00000418,-0.000002
 59,0.00000117,0.00000158,0.00000207,-0.00001176,0.00000049,-0.00000414
 ,-0.00004168,0.00000982,-0.00003967,-0.00001065,-0.00000562,-0.0000081
 3,-0.00000055,0.00000404,0.00000374,-0.00000157,-0.00000010,-0.0000006
 6,0.00000167,0.00000054,0.00000017,-0.00000099,-0.00000120,-0.00000234
 ,0.00000038,0.00000024,0.00000105,-0.00000215,0.00003974,0.00003857,-0
 .00003849,-0.00003119,0.00000968,0.00002129,-0.00002267,-0.00002298,0.
 00001317,0.00000558,-0.00000256,0.00000026,-0.00000091,-0.00000008,0.0
 0000111,-0.00000193,0.,0.00054024,-0.00026179,0.00013608,0.00007034,0.
 00021261,-0.00037943,-0.00000916,0.00002169,0.00000709,-0.00002761,0.0
 0002130,0.00007790,-0.00005009,-0.00002497,-0.00002420,0.09936294,-0.1
 4927373,0.10838864\\0.00000224,0.00000122,-0.00000693,-0.00000453,-0.0
 0000523,0.00000168,-0.00000283,0.00000094,-0.00000335,-0.00000984,0.00
 000438,-0.00000016,-0.00000137,0.00000110,0.00000562,-0.00000005,0.000
 00367,-0.00000948,0.00000947,-0.00000237,-0.00000280,0.00000405,-0.000
 00679,0.00000144,-0.00000776,0.00000468,0.00000109,-0.00000730,-0.0000
 0187,0.00000653,0.00000236,-0.00000209,-0.00000034,0.00001066,0.000007
 90,0.00000358,0.00000848,-0.00000270,0.00000665,-0.00000704,0.00000431
 ,0.00000653,0.00000111,0.00000108,0.00000090,-0.00000302,-0.00000901,-
 0.00000393,0.00000404,-0.00000072,0.00000652,0.00000211,-0.00000465,-0
 .00001048,-0.00000662,-0.00000755,-0.00000082,0.00000076,0.00001354,0.
 00000701,0.00000187,0.00000227,-0.00000438,-0.00000171,0.00000139,-0.0
 0000112,-0.00000150,-0.00000371,0.00000355,0.00000201,-0.00000125,-0.0
 0000613,0.00000380,-0.00000302,-0.00000053,-0.00000009,0.00000242,-0.0
 0000028,-0.00000017,-0.00000086,0.00000520,-0.00000155,0.00000048,-0.0
 0000188,-0.00000339,-0.00000026,-0.00000107,0.00000070,-0.00001389,0.0
 0000391,0.00000055,-0.00000194,-0.00000054,-0.00000005,0.00000371,-0.0
 0000198,-0.00000013,-0.00000194,0.00000134,-0.00000015,-0.00000030,0.0
 0000163,0.00000223,0.00000045,0.00000105,0.00000059,-0.00000291,-0.000
 00247,0.00000165,0.00000143,-0.00000011,-0.00000098,0.00000169,-0.0000
 0052,-0.00000172,-0.00000361,-0.00000394,0.00000084,0.00000138,0.00000
 125,-0.00000046,-0.00000130,-0.00000218,0.00000195,-0.00000028,-0.0000
 0366,0.00000246,0.00000453,0.00000294,0.00000153,-0.00000241,0.0000023
 5,-0.00000676,0.00001233,-0.00000061,-0.00000035,-0.00000048,-0.000002
 68,-0.00000070,0.00000124,-0.00000211,-0.00000245,-0.00000007,0.000000
 85,-0.00000048,0.00000243,0.00000275,-0.00000118,0.00000008,0.00000283
 ,0.00000114,0.00000392,-0.00000421,0.00000171,-0.00000115,-0.00000245,
 0.00000473,0.00000077,0.00000151,0.00000112,-0.00000096,0.00000244\\\@


 There ain't no surer way to find out whether you
 like people or hate them than to travel with them.
                                     -- Mark Twain
 Job cpu time:       1 days  7 hours 12 minutes 17.2 seconds.
 Elapsed time:       0 days  1 hours 57 minutes 26.7 seconds.
 File lengths (MBytes):  RWF=   1961 Int=      0 D2E=      0 Chk=     41 Scr=      1
 Normal termination of Gaussian 16 at Fri Oct 10 00:24:06 2025.
