 Entering Gaussian System, Link 0=g16
 Input=OTAE0049.gjf
 Output=OTAE0049.log
 Initial command:
 /usr/local/g16/l1.exe "/dados_01/scratch/Gau-2595596.inp" -scrdir="/dados_01/scratch/"
 Entering Link 1 = /usr/local/g16/l1.exe PID=   2595597.
  
 Copyright (c) 1988-2017, Gaussian, Inc.  All Rights Reserved.
  
 This is part of the Gaussian(R) 16 program.  It is based on
 the Gaussian(R) 09 system (copyright 2009, Gaussian, Inc.),
 the Gaussian(R) 03 system (copyright 2003, Gaussian, Inc.),
 the Gaussian(R) 98 system (copyright 1998, Gaussian, Inc.),
 the Gaussian(R) 94 system (copyright 1995, Gaussian, Inc.),
 the Gaussian 92(TM) system (copyright 1992, Gaussian, Inc.),
 the Gaussian 90(TM) system (copyright 1990, Gaussian, Inc.),
 the Gaussian 88(TM) system (copyright 1988, Gaussian, Inc.),
 the Gaussian 86(TM) system (copyright 1986, Carnegie Mellon
 University), and the Gaussian 82(TM) system (copyright 1983,
 Carnegie Mellon University). Gaussian is a federally registered
 trademark of Gaussian, Inc.
  
 This software contains proprietary and confidential information,
 including trade secrets, belonging to Gaussian, Inc.
  
 This software is provided under written license and may be
 used, copied, transmitted, or stored only in accord with that
 written license.
  
 The following legend is applicable only to US Government
 contracts under FAR:
  
                    RESTRICTED RIGHTS LEGEND
  
 Use, reproduction and disclosure by the US Government is
 subject to restrictions as set forth in subparagraphs (a)
 and (c) of the Commercial Computer Software - Restricted
 Rights clause in FAR 52.227-19.
  
 Gaussian, Inc.
 340 Quinnipiac St., Bldg. 40, Wallingford CT 06492
  
  
 ---------------------------------------------------------------
 Warning -- This program may not be used in any manner that
 competes with the business of Gaussian, Inc. or will provide
 assistance to any competitor of Gaussian, Inc.  The licensee
 of this program is prohibited from giving any competitor of
 Gaussian, Inc. access to this program.  By using this program,
 the user acknowledges that Gaussian, Inc. is engaged in the
 business of creating and licensing software in the field of
 computational chemistry and represents and warrants to the
 licensee that it is not a competitor of Gaussian, Inc. and that
 it will not use this program in any manner prohibited above.
 ---------------------------------------------------------------
  

 Cite this work as:
 Gaussian 16, Revision B.01,
 M. J. Frisch, G. W. Trucks, H. B. Schlegel, G. E. Scuseria, 
 M. A. Robb, J. R. Cheeseman, G. Scalmani, V. Barone, 
 G. A. Petersson, H. Nakatsuji, X. Li, M. Caricato, A. V. Marenich, 
 J. Bloino, B. G. Janesko, R. Gomperts, B. Mennucci, H. P. Hratchian, 
 J. V. Ortiz, A. F. Izmaylov, J. L. Sonnenberg, D. Williams-Young, 
 F. Ding, F. Lipparini, F. Egidi, J. Goings, B. Peng, A. Petrone, 
 T. Henderson, D. Ranasinghe, V. G. Zakrzewski, J. Gao, N. Rega, 
 G. Zheng, W. Liang, M. Hada, M. Ehara, K. Toyota, R. Fukuda, 
 J. Hasegawa, M. Ishida, T. Nakajima, Y. Honda, O. Kitao, H. Nakai, 
 T. Vreven, K. Throssell, J. A. Montgomery, Jr., J. E. Peralta, 
 F. Ogliaro, M. J. Bearpark, J. J. Heyd, E. N. Brothers, K. N. Kudin, 
 V. N. Staroverov, T. A. Keith, R. Kobayashi, J. Normand, 
 K. Raghavachari, A. P. Rendell, J. C. Burant, S. S. Iyengar, 
 J. Tomasi, M. Cossi, J. M. Millam, M. Klene, C. Adamo, R. Cammi, 
 J. W. Ochterski, R. L. Martin, K. Morokuma, O. Farkas, 
 J. B. Foresman, and D. J. Fox, Gaussian, Inc., Wallingford CT, 2016.
 
 ******************************************
 Gaussian 16:  ES64L-G16RevB.01 20-Dec-2017
                10-Oct-2025 
 ******************************************
 %nprocs=16
 Will use up to   16 processors via shared memory.
 %mem=40GB
 %chk=OTAE0049.chk
 ----------------------------------------------------------------------
 # opt freq=noraman M08HX/6-311++G** scf=xqc Empiricaldispersion=pfd In
 t(Grid=ultraFine)
 ----------------------------------------------------------------------
 1/18=20,19=15,26=4,38=1/1,3;
 2/9=110,12=2,17=6,18=5,40=1/2;
 3/5=4,6=6,7=1111,11=2,25=1,30=1,71=1,74=-74,75=-5,124=11/1,2,3;
 4//1;
 5/5=2,8=3,13=1,38=5/2,8;
 6/7=2,8=2,9=2,10=2,28=1/1;
 7//1,2,3,16;
 1/18=20,19=15,26=4/3(2);
 2/9=110/2;
 99//99;
 2/9=110/2;
 3/5=4,6=6,7=1111,11=2,25=1,30=1,71=1,74=-74,75=-5,124=11/1,2,3;
 4/5=5,16=3,69=1/1;
 5/5=2,8=3,13=1,38=5/2,8;
 7//1,2,3,16;
 1/18=20,19=15,26=4/3(-5);
 2/9=110/2;
 6/7=2,8=2,9=2,10=2,19=2,28=1/1;
 99/9=1/99;
 --------
 OTAE0049
 --------
 Symbolic Z-matrix:
 Charge =  0 Multiplicity = 1
 C                    -0.6084   -0.4286    0.0387 
 C                     0.632     0.4677    0.0288 
 C                    -1.9251    0.3534    0.0307 
 C                     1.9162   -0.3646    0.0134 
 C                    -3.1635   -0.5416   -0.0336 
 C                     3.1566    0.5275   -0.0351 
 C                    -4.4429    0.281    -0.0264 
 C                     4.4352   -0.2948   -0.0166 
 H                    -0.5822   -1.0768    0.9233 
 H                    -0.5814   -1.0883   -0.8377 
 H                     0.6221    1.1178    0.9119 
 H                     0.6044    1.1188   -0.8533 
 H                    -1.9307    1.0354   -0.8287 
 H                    -1.9737    0.979     0.9306 
 H                     1.9126   -1.0331   -0.8562 
 H                     1.9522   -0.9984    0.9079 
 H                    -3.1698   -1.2275    0.8214 
 H                    -3.132    -1.1542   -0.9419 
 H                     3.1575    1.2109    0.8221 
 H                     3.1369    1.1437   -0.9415 
 H                    -4.5183    0.8815    0.8858 
 H                    -4.48      0.9564   -0.8871 
 H                    -5.3163   -0.377    -0.0729 
 H                     5.3093    0.3628   -0.053 
 H                     4.4807   -0.9684   -0.8784 
 H                     4.5011   -0.8974    0.8948 
 

 GradGradGradGradGradGradGradGradGradGradGradGradGradGradGradGradGradGrad
 Berny optimization.
 Initialization pass.
                           ----------------------------
                           !    Initial Parameters    !
                           ! (Angstroms and Degrees)  !
 --------------------------                            --------------------------
 ! Name  Definition              Value          Derivative Info.                !
 --------------------------------------------------------------------------------
 ! R1    R(1,2)                  1.5304         estimate D2E/DX2                !
 ! R2    R(1,3)                  1.5314         estimate D2E/DX2                !
 ! R3    R(1,9)                  1.097          estimate D2E/DX2                !
 ! R4    R(1,10)                 1.0973         estimate D2E/DX2                !
 ! R5    R(2,4)                  1.5304         estimate D2E/DX2                !
 ! R6    R(2,11)                 1.0966         estimate D2E/DX2                !
 ! R7    R(2,12)                 1.0967         estimate D2E/DX2                !
 ! R8    R(3,5)                  1.5293         estimate D2E/DX2                !
 ! R9    R(3,13)                 1.0971         estimate D2E/DX2                !
 ! R10   R(3,14)                 1.0971         estimate D2E/DX2                !
 ! R11   R(4,6)                  1.5287         estimate D2E/DX2                !
 ! R12   R(4,15)                 1.0969         estimate D2E/DX2                !
 ! R13   R(4,16)                 1.0969         estimate D2E/DX2                !
 ! R14   R(5,7)                  1.521          estimate D2E/DX2                !
 ! R15   R(5,17)                 1.0961         estimate D2E/DX2                !
 ! R16   R(5,18)                 1.096          estimate D2E/DX2                !
 ! R17   R(6,8)                  1.5203         estimate D2E/DX2                !
 ! R18   R(6,19)                 1.0963         estimate D2E/DX2                !
 ! R19   R(6,20)                 1.0962         estimate D2E/DX2                !
 ! R20   R(7,21)                 1.0947         estimate D2E/DX2                !
 ! R21   R(7,22)                 1.0947         estimate D2E/DX2                !
 ! R22   R(7,23)                 1.0945         estimate D2E/DX2                !
 ! R23   R(8,24)                 1.0944         estimate D2E/DX2                !
 ! R24   R(8,25)                 1.0948         estimate D2E/DX2                !
 ! R25   R(8,26)                 1.0946         estimate D2E/DX2                !
 ! A1    A(2,1,3)              113.4391         estimate D2E/DX2                !
 ! A2    A(2,1,9)              109.386          estimate D2E/DX2                !
 ! A3    A(2,1,10)             109.0872         estimate D2E/DX2                !
 ! A4    A(3,1,9)              109.0551         estimate D2E/DX2                !
 ! A5    A(3,1,10)             108.9041         estimate D2E/DX2                !
 ! A6    A(9,1,10)             106.752          estimate D2E/DX2                !
 ! A7    A(1,2,4)              111.2033         estimate D2E/DX2                !
 ! A8    A(1,2,11)             109.5525         estimate D2E/DX2                !
 ! A9    A(1,2,12)             109.4211         estimate D2E/DX2                !
 ! A10   A(4,2,11)             109.7599         estimate D2E/DX2                !
 ! A11   A(4,2,12)             109.6269         estimate D2E/DX2                !
 ! A12   A(11,2,12)            107.1892         estimate D2E/DX2                !
 ! A13   A(1,3,5)              113.4291         estimate D2E/DX2                !
 ! A14   A(1,3,13)             109.0199         estimate D2E/DX2                !
 ! A15   A(1,3,14)             108.965          estimate D2E/DX2                !
 ! A16   A(5,3,13)             109.0698         estimate D2E/DX2                !
 ! A17   A(5,3,14)             109.411          estimate D2E/DX2                !
 ! A18   A(13,3,14)            106.728          estimate D2E/DX2                !
 ! A19   A(2,4,6)              111.3358         estimate D2E/DX2                !
 ! A20   A(2,4,15)             109.6746         estimate D2E/DX2                !
 ! A21   A(2,4,16)             109.4863         estimate D2E/DX2                !
 ! A22   A(6,4,15)             109.4622         estimate D2E/DX2                !
 ! A23   A(6,4,16)             109.6608         estimate D2E/DX2                !
 ! A24   A(15,4,16)            107.1262         estimate D2E/DX2                !
 ! A25   A(3,5,7)              111.3725         estimate D2E/DX2                !
 ! A26   A(3,5,17)             109.7588         estimate D2E/DX2                !
 ! A27   A(3,5,18)             109.796          estimate D2E/DX2                !
 ! A28   A(7,5,17)             109.2616         estimate D2E/DX2                !
 ! A29   A(7,5,18)             109.2913         estimate D2E/DX2                !
 ! A30   A(17,5,18)            107.2673         estimate D2E/DX2                !
 ! A31   A(4,6,8)              111.4933         estimate D2E/DX2                !
 ! A32   A(4,6,19)             109.8558         estimate D2E/DX2                !
 ! A33   A(4,6,20)             109.8585         estimate D2E/DX2                !
 ! A34   A(8,6,19)             109.0848         estimate D2E/DX2                !
 ! A35   A(8,6,20)             109.2212         estimate D2E/DX2                !
 ! A36   A(19,6,20)            107.2254         estimate D2E/DX2                !
 ! A37   A(5,7,21)             111.0105         estimate D2E/DX2                !
 ! A38   A(5,7,22)             111.0053         estimate D2E/DX2                !
 ! A39   A(5,7,23)             110.2355         estimate D2E/DX2                !
 ! A40   A(21,7,22)            108.324          estimate D2E/DX2                !
 ! A41   A(21,7,23)            108.0722         estimate D2E/DX2                !
 ! A42   A(22,7,23)            108.0875         estimate D2E/DX2                !
 ! A43   A(6,8,24)             110.2611         estimate D2E/DX2                !
 ! A44   A(6,8,25)             110.988          estimate D2E/DX2                !
 ! A45   A(6,8,26)             111.0102         estimate D2E/DX2                !
 ! A46   A(24,8,25)            108.0788         estimate D2E/DX2                !
 ! A47   A(24,8,26)            108.083          estimate D2E/DX2                !
 ! A48   A(25,8,26)            108.3138         estimate D2E/DX2                !
 ! D1    D(3,1,2,4)           -179.0384         estimate D2E/DX2                !
 ! D2    D(3,1,2,11)            59.455          estimate D2E/DX2                !
 ! D3    D(3,1,2,12)           -57.7869         estimate D2E/DX2                !
 ! D4    D(9,1,2,4)             58.9707         estimate D2E/DX2                !
 ! D5    D(9,1,2,11)           -62.5359         estimate D2E/DX2                !
 ! D6    D(9,1,2,12)          -179.7778         estimate D2E/DX2                !
 ! D7    D(10,1,2,4)           -57.4584         estimate D2E/DX2                !
 ! D8    D(10,1,2,11)         -178.965          estimate D2E/DX2                !
 ! D9    D(10,1,2,12)           63.7931         estimate D2E/DX2                !
 ! D10   D(2,1,3,5)            176.9697         estimate D2E/DX2                !
 ! D11   D(2,1,3,13)            55.2327         estimate D2E/DX2                !
 ! D12   D(2,1,3,14)           -60.8958         estimate D2E/DX2                !
 ! D13   D(9,1,3,5)            -60.8554         estimate D2E/DX2                !
 ! D14   D(9,1,3,13)           177.4076         estimate D2E/DX2                !
 ! D15   D(9,1,3,14)            61.2791         estimate D2E/DX2                !
 ! D16   D(10,1,3,5)            55.2874         estimate D2E/DX2                !
 ! D17   D(10,1,3,13)          -66.4496         estimate D2E/DX2                !
 ! D18   D(10,1,3,14)          177.4219         estimate D2E/DX2                !
 ! D19   D(1,2,4,6)            178.4472         estimate D2E/DX2                !
 ! D20   D(1,2,4,15)            57.1459         estimate D2E/DX2                !
 ! D21   D(1,2,4,16)           -60.1287         estimate D2E/DX2                !
 ! D22   D(11,2,4,6)           -60.1674         estimate D2E/DX2                !
 ! D23   D(11,2,4,15)          178.5313         estimate D2E/DX2                !
 ! D24   D(11,2,4,16)           61.2567         estimate D2E/DX2                !
 ! D25   D(12,2,4,6)            57.3161         estimate D2E/DX2                !
 ! D26   D(12,2,4,15)          -63.9851         estimate D2E/DX2                !
 ! D27   D(12,2,4,16)          178.7403         estimate D2E/DX2                !
 ! D28   D(1,3,5,7)            179.4832         estimate D2E/DX2                !
 ! D29   D(1,3,5,17)            58.3535         estimate D2E/DX2                !
 ! D30   D(1,3,5,18)           -59.3246         estimate D2E/DX2                !
 ! D31   D(13,3,5,7)           -58.8077         estimate D2E/DX2                !
 ! D32   D(13,3,5,17)         -179.9374         estimate D2E/DX2                !
 ! D33   D(13,3,5,18)           62.3845         estimate D2E/DX2                !
 ! D34   D(14,3,5,7)            57.5969         estimate D2E/DX2                !
 ! D35   D(14,3,5,17)          -63.5328         estimate D2E/DX2                !
 ! D36   D(14,3,5,18)          178.7891         estimate D2E/DX2                !
 ! D37   D(2,4,6,8)            178.6251         estimate D2E/DX2                !
 ! D38   D(2,4,6,19)            57.5731         estimate D2E/DX2                !
 ! D39   D(2,4,6,20)           -60.1491         estimate D2E/DX2                !
 ! D40   D(15,4,6,8)           -59.9497         estimate D2E/DX2                !
 ! D41   D(15,4,6,19)          178.9982         estimate D2E/DX2                !
 ! D42   D(15,4,6,20)           61.2761         estimate D2E/DX2                !
 ! D43   D(16,4,6,8)            57.3028         estimate D2E/DX2                !
 ! D44   D(16,4,6,19)          -63.7492         estimate D2E/DX2                !
 ! D45   D(16,4,6,20)          178.5286         estimate D2E/DX2                !
 ! D46   D(3,5,7,21)           -60.282          estimate D2E/DX2                !
 ! D47   D(3,5,7,22)            60.2638         estimate D2E/DX2                !
 ! D48   D(3,5,7,23)           179.9987         estimate D2E/DX2                !
 ! D49   D(17,5,7,21)           61.1378         estimate D2E/DX2                !
 ! D50   D(17,5,7,22)         -178.3165         estimate D2E/DX2                !
 ! D51   D(17,5,7,23)          -58.5815         estimate D2E/DX2                !
 ! D52   D(18,5,7,21)          178.2317         estimate D2E/DX2                !
 ! D53   D(18,5,7,22)          -61.2226         estimate D2E/DX2                !
 ! D54   D(18,5,7,23)           58.5124         estimate D2E/DX2                !
 ! D55   D(4,6,8,24)           179.9395         estimate D2E/DX2                !
 ! D56   D(4,6,8,25)            60.2098         estimate D2E/DX2                !
 ! D57   D(4,6,8,26)           -60.3112         estimate D2E/DX2                !
 ! D58   D(19,6,8,24)          -58.5597         estimate D2E/DX2                !
 ! D59   D(19,6,8,25)         -178.2895         estimate D2E/DX2                !
 ! D60   D(19,6,8,26)           61.1895         estimate D2E/DX2                !
 ! D61   D(20,6,8,24)           58.3433         estimate D2E/DX2                !
 ! D62   D(20,6,8,25)          -61.3864         estimate D2E/DX2                !
 ! D63   D(20,6,8,26)          178.0925         estimate D2E/DX2                !
 --------------------------------------------------------------------------------
 Trust Radius=3.00D-01 FncErr=1.00D-07 GrdErr=1.00D-06 EigMax=2.50D+02 EigMin=1.00D-04
 Number of steps in this run=    146 maximum allowed number of steps=    156.
 GradGradGradGradGradGradGradGradGradGradGradGradGradGradGradGradGradGrad

                          Input orientation:                          
 ---------------------------------------------------------------------
 Center     Atomic      Atomic             Coordinates (Angstroms)
 Number     Number       Type             X           Y           Z
 ---------------------------------------------------------------------
      1          6           0       -0.608400   -0.428600    0.038700
      2          6           0        0.632000    0.467700    0.028800
      3          6           0       -1.925100    0.353400    0.030700
      4          6           0        1.916200   -0.364600    0.013400
      5          6           0       -3.163500   -0.541600   -0.033600
      6          6           0        3.156600    0.527500   -0.035100
      7          6           0       -4.442900    0.281000   -0.026400
      8          6           0        4.435200   -0.294800   -0.016600
      9          1           0       -0.582200   -1.076800    0.923300
     10          1           0       -0.581400   -1.088300   -0.837700
     11          1           0        0.622100    1.117800    0.911900
     12          1           0        0.604400    1.118800   -0.853300
     13          1           0       -1.930700    1.035400   -0.828700
     14          1           0       -1.973700    0.979000    0.930600
     15          1           0        1.912600   -1.033100   -0.856200
     16          1           0        1.952200   -0.998400    0.907900
     17          1           0       -3.169800   -1.227500    0.821400
     18          1           0       -3.132000   -1.154200   -0.941900
     19          1           0        3.157500    1.210900    0.822100
     20          1           0        3.136900    1.143700   -0.941500
     21          1           0       -4.518300    0.881500    0.885800
     22          1           0       -4.480000    0.956400   -0.887100
     23          1           0       -5.316300   -0.377000   -0.072900
     24          1           0        5.309300    0.362800   -0.053000
     25          1           0        4.480700   -0.968400   -0.878400
     26          1           0        4.501100   -0.897400    0.894800
 ---------------------------------------------------------------------
                    Distance matrix (angstroms):
                    1          2          3          4          5
     1  C    0.000000
     2  C    1.530374   0.000000
     3  C    1.531433   2.559654   0.000000
     4  C    2.525538   1.530402   3.907865   0.000000
     5  C    2.558619   3.927900   1.529312   5.083000   0.000000
     6  C    3.885203   2.526116   5.085107   1.528655   6.409886
     7  C    3.900149   5.078633   2.519488   6.391912   1.521048
     8  C    5.045678   3.879149   6.393420   2.520145   7.602726
     9  H    1.096981   2.158678   2.155362   2.752662   2.804498
    10  H    1.097274   2.155063   2.153636   2.736077   2.759112
    11  H    2.160547   1.096628   2.801615   2.163217   4.240088
    12  H    2.158934   1.096719   2.786694   2.161588   4.198322
    13  H    2.155030   2.761344   1.097143   4.179446   2.153813
    14  H    2.154267   2.804344   1.097068   4.216377   2.158131
    15  H    2.742573   2.162305   4.175753   1.096863   5.165756
    16  H    2.763486   2.159906   4.198845   1.096872   5.221635
    17  H    2.794929   4.237405   2.161881   5.221576   1.096140
    18  H    2.802968   4.211949   2.162271   5.198114   1.096029
    19  H    4.181349   2.749513   5.214829   2.162642   6.615022
    20  H    4.178539   2.770015   5.214747   2.162617   6.584798
    21  H    4.209663   5.237487   2.781146   6.611856   2.169330
    22  H    4.214809   5.216344   2.780913   6.592975   2.169248
    23  H    4.709505   6.008838   3.470512   7.233025   2.159441
    24  H    5.971088   4.679191   7.234890   3.470828   8.520954
    25  H    5.199173   4.206886   6.603627   2.781464   7.702574
    26  H    5.201891   4.193255   6.603576   2.782526   7.728817
                    6          7          8          9         10
     6  C    0.000000
     7  C    7.603502   0.000000
     8  C    1.520308   8.896758   0.000000
     9  H    4.179825   4.201256   5.164227   0.000000
    10  H    4.150617   4.176646   5.144912   1.761038   0.000000
    11  H    2.769288   5.218703   4.171005   2.503345   3.062089
    12  H    2.744597   5.182751   4.168136   3.063493   2.505525
    13  H    5.173817   2.742983   6.553901   3.057670   2.516107
    14  H    5.239886   2.738613   6.602557   2.482466   3.055996
    15  H    2.158058   6.542768   2.759262   3.064728   2.494679
    16  H    2.160602   6.588405   2.741358   2.535659   3.078040
    17  H    6.620948   2.148283   7.707671   2.593987   3.077630
    18  H    6.572434   2.148580   7.671849   3.160133   2.553578
    19  H    1.096279   7.703944   2.145476   4.385108   4.692614
    20  H    1.096199   7.683425   2.147162   4.715910   4.338013
    21  H    7.738053   1.094712   9.075416   4.396502   4.727552
    22  H    7.695942   1.094690   9.044560   4.754397   4.402536
    23  H    8.521126   1.094511   9.752009   4.888132   4.848726
    24  H    2.159065   9.752579   1.094447   6.142913   6.117335
    25  H    2.168435   9.050831   1.094763   5.375019   5.063683
    26  H    2.168579   9.068207   1.094586   5.086545   5.373063
                   11         12         13         14         15
    11  H    0.000000
    12  H    1.765289   0.000000
    13  H    3.090836   2.536591   0.000000
    14  H    2.599575   3.138223   1.760729   0.000000
    15  H    3.068866   2.518347   4.364677   4.727000   0.000000
    16  H    2.499497   3.066093   4.714768   4.395829   1.764886
    17  H    4.459499   4.749140   3.062501   2.512215   5.355644
    18  H    4.763594   4.374364   2.500057   3.065690   5.046781
    19  H    2.538697   3.055121   5.352170   5.137583   3.066269
    20  H    3.124097   2.534158   5.070012   5.445192   2.498929
    21  H    5.145895   5.415056   3.107872   2.546861   6.932296
    22  H    5.412382   5.087105   2.551192   3.096140   6.695103
    23  H    6.202326   6.156389   3.745450   3.744159   7.300755
    24  H    4.844678   4.831987   7.312435   7.374907   3.759154
    25  H    4.737742   4.402583   6.717420   6.980267   2.569011
    26  H    4.371266   4.722837   6.933557   6.741305   3.128058
                   16         17         18         19         20
    16  H    0.000000
    17  H    5.127851   0.000000
    18  H    5.412497   1.765228   0.000000
    19  H    2.518157   6.780894   6.947172   0.000000
    20  H    3.067961   6.964544   6.676785   1.765000   0.000000
    21  H    6.738092   2.504093   3.066984   7.683129   7.874634
    22  H    6.958194   3.066760   2.504943   7.830552   7.619397
    23  H    7.360652   2.476002   2.475958   8.667626   8.632704
    24  H    3.747841   8.671146   8.622469   2.472917   2.473572
    25  H    3.095978   7.841339   7.615232   3.064622   2.504146
    26  H    2.550934   7.678350   7.855166   2.501095   3.065800
                   21         22         23         24         25
    21  H    0.000000
    22  H    1.774895   0.000000
    23  H    1.771929   1.772082   0.000000
    24  H    9.885956   9.842687  10.651341   0.000000
    25  H    9.355027   9.165101   9.847832   1.771992   0.000000
    26  H    9.193157   9.341943   9.878694   1.771896   1.774738
                   26
    26  H    0.000000
 Stoichiometry    C8H18
 Framework group  C1[X(C8H18)]
 Deg. of freedom    72
 Full point group                 C1      NOp   1
 Largest Abelian subgroup         C1      NOp   1
 Largest concise Abelian subgroup C1      NOp   1
                         Standard orientation:                         
 ---------------------------------------------------------------------
 Center     Atomic      Atomic             Coordinates (Angstroms)
 Number     Number       Type             X           Y           Z
 ---------------------------------------------------------------------
      1          6           0       -0.606021   -0.431586    0.039511
      2          6           0        0.629623    0.471260    0.029611
      3          6           0       -1.926837    0.343442    0.031511
      4          6           0        1.918206   -0.354239    0.014211
      5          6           0       -3.160487   -0.558093   -0.032789
      6          6           0        3.153872    0.544407   -0.034289
      7          6           0       -4.444219    0.257731   -0.025589
      8          6           0        4.436802   -0.271122   -0.015789
      9          1           0       -0.576394   -1.079638    0.924111
     10          1           0       -0.575533   -1.091134   -0.836889
     11          1           0        0.616286    1.121298    0.912711
     12          1           0        0.598581    1.122205   -0.852489
     13          1           0       -1.936042    1.025403   -0.827889
     14          1           0       -1.978744    0.968776    0.931411
     15          1           0        1.918140   -1.022749   -0.855389
     16          1           0        1.957556   -0.987840    0.908711
     17          1           0       -3.163161   -1.244017    0.822211
     18          1           0       -3.125749   -1.170518   -0.941089
     19          1           0        3.151159    1.227802    0.822911
     20          1           0        3.130914    1.160494   -0.940689
     21          1           0       -4.522793    0.857824    0.886611
     22          1           0       -4.484889    0.932925   -0.886289
     23          1           0       -5.314128   -0.404878   -0.072089
     24          1           0        5.307413    0.391091   -0.052189
     25          1           0        4.485862   -0.944472   -0.877589
     26          1           0        4.505887   -0.873365    0.895611
 ---------------------------------------------------------------------
 Rotational constants (GHZ):          10.5624325           0.4964331           0.4857038
 Standard basis: 6-311++G(d,p) (5D, 7F)
 There are   310 symmetry adapted cartesian basis functions of A   symmetry.
 There are   302 symmetry adapted basis functions of A   symmetry.
   302 basis functions,   450 primitive gaussians,   310 cartesian basis functions
    33 alpha electrons       33 beta electrons
       nuclear repulsion energy       375.7741643770 Hartrees.
 NAtoms=   26 NActive=   26 NUniq=   26 SFac= 1.00D+00 NAtFMM=   60 NAOKFM=F Big=F
 Integral buffers will be    131072 words long.
 Raffenetti 2 integral format.
 Two-electron integral symmetry is turned on.
 R6APFD:  NTU= -4 IXU= 1 FactS= 1.050
 Nuclear repulsion after empirical dispersion term =      375.7585980053 Hartrees.
 One-electron integrals computed using PRISM.
 NBasis=   302 RedAO= T EigKep=  5.01D-06  NBF=   302
 NBsUse=   302 1.00D-06 EigRej= -1.00D+00 NBFU=   302
 ExpMin= 3.60D-02 ExpMax= 4.56D+03 ExpMxC= 6.82D+02 IAcc=3 IRadAn=         5 AccDes= 0.00D+00
 Harris functional with IExCor= 1009 and IRadAn=       5 diagonalized for initial guess.
 HarFok:  IExCor= 1009 AccDes= 0.00D+00 IRadAn=         5 IDoV= 1 UseB2=F ITyADJ=14
 ICtDFT=  3500011 ScaDFX=  1.000000  1.000000  1.000000  1.000000
 FoFCou: FMM=F IPFlag=           0 FMFlag=      100000 FMFlg1=           0
         NFxFlg=           0 DoJE=T BraDBF=F KetDBF=T FulRan=T
         wScrn=  0.000000 ICntrl=       500 IOpCl=  0 I1Cent=   200000004 NGrid=           0
         NMat0=    1 NMatS0=      1 NMatT0=    0 NMatD0=    1 NMtDS0=    0 NMtDT0=    0
 Petite list used in FoFCou.
 Requested convergence on RMS density matrix=1.00D-08 within  32 cycles.
 Requested convergence on MAX density matrix=1.00D-06.
 Requested convergence on             energy=1.00D-06.
 No special actions if energy rises.
 SCF Done:  E(RM08HX) =  -315.731240589     A.U. after   11 cycles
            NFock= 11  Conv=0.69D-08     -V/T= 2.0059
 QCSCF skips out because SCF is already converged.

 **********************************************************************

            Population analysis using the SCF Density.

 **********************************************************************

 Orbital symmetries:
       Occupied  (A) (A) (A) (A) (A) (A) (A) (A) (A) (A) (A) (A)
                 (A) (A) (A) (A) (A) (A) (A) (A) (A) (A) (A) (A)
                 (A) (A) (A) (A) (A) (A) (A) (A) (A)
       Virtual   (A) (A) (A) (A) (A) (A) (A) (A) (A) (A) (A) (A)
                 (A) (A) (A) (A) (A) (A) (A) (A) (A) (A) (A) (A)
                 (A) (A) (A) (A) (A) (A) (A) (A) (A) (A) (A) (A)
                 (A) (A) (A) (A) (A) (A) (A) (A) (A) (A) (A) (A)
                 (A) (A) (A) (A) (A) (A) (A) (A) (A) (A) (A) (A)
                 (A) (A) (A) (A) (A) (A) (A) (A) (A) (A) (A) (A)
                 (A) (A) (A) (A) (A) (A) (A) (A) (A) (A) (A) (A)
                 (A) (A) (A) (A) (A) (A) (A) (A) (A) (A) (A) (A)
                 (A) (A) (A) (A) (A) (A) (A) (A) (A) (A) (A) (A)
                 (A) (A) (A) (A) (A) (A) (A) (A) (A) (A) (A) (A)
                 (A) (A) (A) (A) (A) (A) (A) (A) (A) (A) (A) (A)
                 (A) (A) (A) (A) (A) (A) (A) (A) (A) (A) (A) (A)
                 (A) (A) (A) (A) (A) (A) (A) (A) (A) (A) (A) (A)
                 (A) (A) (A) (A) (A) (A) (A) (A) (A) (A) (A) (A)
                 (A) (A) (A) (A) (A) (A) (A) (A) (A) (A) (A) (A)
                 (A) (A) (A) (A) (A) (A) (A) (A) (A) (A) (A) (A)
                 (A) (A) (A) (A) (A) (A) (A) (A) (A) (A) (A) (A)
                 (A) (A) (A) (A) (A) (A) (A) (A) (A) (A) (A) (A)
                 (A) (A) (A) (A) (A) (A) (A) (A) (A) (A) (A) (A)
                 (A) (A) (A) (A) (A) (A) (A) (A) (A) (A) (A) (A)
                 (A) (A) (A) (A) (A) (A) (A) (A) (A) (A) (A) (A)
                 (A) (A) (A) (A) (A) (A) (A) (A) (A) (A) (A) (A)
                 (A) (A) (A) (A) (A)
 The electronic state is 1-A.
 Alpha  occ. eigenvalues --  -10.51832 -10.51784 -10.51730 -10.51694 -10.51670
 Alpha  occ. eigenvalues --  -10.51632 -10.51025 -10.50972  -0.91918  -0.89412
 Alpha  occ. eigenvalues --   -0.85225  -0.79635  -0.73312  -0.67764  -0.66124
 Alpha  occ. eigenvalues --   -0.65580  -0.56032  -0.53767  -0.50905  -0.50256
 Alpha  occ. eigenvalues --   -0.48866  -0.48021  -0.46059  -0.45069  -0.42148
 Alpha  occ. eigenvalues --   -0.41586  -0.41431  -0.39529  -0.39370  -0.38501
 Alpha  occ. eigenvalues --   -0.38397  -0.38137  -0.35490
 Alpha virt. eigenvalues --   -0.02631  -0.01803  -0.01416  -0.01327  -0.00408
 Alpha virt. eigenvalues --    0.00288   0.00465   0.01630   0.02132   0.02524
 Alpha virt. eigenvalues --    0.02994   0.03487   0.03862   0.04204   0.05194
 Alpha virt. eigenvalues --    0.05392   0.05977   0.06672   0.07299   0.08395
 Alpha virt. eigenvalues --    0.08529   0.09779   0.09853   0.11016   0.11394
 Alpha virt. eigenvalues --    0.12053   0.12095   0.12154   0.12492   0.12959
 Alpha virt. eigenvalues --    0.13019   0.13224   0.13404   0.14581   0.14689
 Alpha virt. eigenvalues --    0.15361   0.15777   0.16170   0.16832   0.16957
 Alpha virt. eigenvalues --    0.17237   0.17487   0.17794   0.18175   0.19013
 Alpha virt. eigenvalues --    0.19307   0.19866   0.20526   0.21548   0.22117
 Alpha virt. eigenvalues --    0.22719   0.23017   0.23591   0.24518   0.24890
 Alpha virt. eigenvalues --    0.25522   0.26201   0.27233   0.27841   0.28315
 Alpha virt. eigenvalues --    0.29712   0.30283   0.30704   0.31177   0.31523
 Alpha virt. eigenvalues --    0.32416   0.33120   0.33313   0.34473   0.35045
 Alpha virt. eigenvalues --    0.37102   0.37442   0.37499   0.38370   0.39160
 Alpha virt. eigenvalues --    0.42978   0.45862   0.46347   0.47664   0.47763
 Alpha virt. eigenvalues --    0.48863   0.49474   0.52400   0.53098   0.56776
 Alpha virt. eigenvalues --    0.57544   0.58171   0.59370   0.60796   0.66655
 Alpha virt. eigenvalues --    0.67260   0.67966   0.67997   0.68904   0.69369
 Alpha virt. eigenvalues --    0.69983   0.70234   0.71606   0.71967   0.72155
 Alpha virt. eigenvalues --    0.72563   0.72886   0.74431   0.74507   0.75228
 Alpha virt. eigenvalues --    0.75472   0.76851   0.77398   0.77719   0.78226
 Alpha virt. eigenvalues --    0.78987   0.80039   0.80675   0.81015   0.83733
 Alpha virt. eigenvalues --    0.84046   0.84517   0.86435   0.97302   0.98498
 Alpha virt. eigenvalues --    1.00865   1.01800   1.03359   1.04068   1.06041
 Alpha virt. eigenvalues --    1.06483   1.09468   1.15930   1.18005   1.26342
 Alpha virt. eigenvalues --    1.27385   1.29434   1.30435   1.31011   1.32070
 Alpha virt. eigenvalues --    1.32173   1.33547   1.41802   1.49781   1.49907
 Alpha virt. eigenvalues --    1.50090   1.52174   1.53067   1.56966   1.58827
 Alpha virt. eigenvalues --    1.59247   1.60414   1.60845   1.61349   1.61809
 Alpha virt. eigenvalues --    1.62736   1.64374   1.64960   1.65242   1.65699
 Alpha virt. eigenvalues --    1.65973   1.67953   1.69280   1.70071   1.71559
 Alpha virt. eigenvalues --    1.72025   1.74460   1.76009   1.76594   1.76708
 Alpha virt. eigenvalues --    1.77102   1.78247   1.79763   1.82228   1.85537
 Alpha virt. eigenvalues --    1.87184   1.88449   1.89037   1.89572   1.91016
 Alpha virt. eigenvalues --    1.96074   1.98503   1.98999   2.05675   2.09562
 Alpha virt. eigenvalues --    2.10485   2.11296   2.13268   2.18740   2.19183
 Alpha virt. eigenvalues --    2.19600   2.21251   2.25697   2.25924   2.27466
 Alpha virt. eigenvalues --    2.28262   2.31694   2.32441   2.35768   2.39505
 Alpha virt. eigenvalues --    2.40184   2.41986   2.43252   2.46482   2.46956
 Alpha virt. eigenvalues --    2.48261   2.48786   2.50438   2.51325   2.52727
 Alpha virt. eigenvalues --    2.54479   2.56819   2.58750   2.59168   2.59381
 Alpha virt. eigenvalues --    2.59914   2.62745   2.63528   2.64146   2.64660
 Alpha virt. eigenvalues --    2.65673   2.66842   2.67901   2.70015   2.70624
 Alpha virt. eigenvalues --    2.71661   2.73870   2.75410   2.76061   2.78632
 Alpha virt. eigenvalues --    2.79022   2.79345   2.81502   2.85828   2.86382
 Alpha virt. eigenvalues --    2.87287   2.92095   2.92635   2.93161   2.94422
 Alpha virt. eigenvalues --    2.95084   2.97755   3.09157   3.11648   3.17773
 Alpha virt. eigenvalues --    3.28715   3.39683   3.48028   3.54250   3.80767
 Alpha virt. eigenvalues --    3.81906   3.83078   3.84811   3.85108   3.85221
 Alpha virt. eigenvalues --    3.86545   3.86909   3.91924   3.96710   4.11676
 Alpha virt. eigenvalues --    4.15465   4.20600   4.28210   4.36425   4.42801
 Alpha virt. eigenvalues --    4.46777  23.94601  23.95456  23.95736  23.96157
 Alpha virt. eigenvalues --   23.98454  23.98939  24.04497  24.04608
          Condensed to atoms (all electrons):
               1          2          3          4          5          6
     1  C    7.478842  -0.704475  -0.908419   0.134900   0.050043  -0.258728
     2  C   -0.704475   7.315094   0.183329  -0.661071  -0.307959  -0.027346
     3  C   -0.908419   0.183329   7.689241  -0.359145  -0.869310  -0.287576
     4  C    0.134900  -0.661071  -0.359145   7.382495  -0.259487  -0.798090
     5  C    0.050043  -0.307959  -0.869310  -0.259487   7.272763  -0.034291
     6  C   -0.258728  -0.027346  -0.287576  -0.798090  -0.034291   7.224455
     7  C   -0.203153  -0.099778   0.289335  -0.021555  -0.272880  -0.007041
     8  C   -0.118685  -0.183232  -0.024052   0.250750  -0.007629  -0.249928
     9  H    0.511284  -0.073167  -0.102623   0.019287   0.005905  -0.000624
    10  H    0.536205  -0.115750  -0.082822  -0.006604   0.031933  -0.008331
    11  H   -0.073133   0.510563   0.020780  -0.105849   0.001032   0.006512
    12  H   -0.110591   0.522769  -0.009885  -0.067934  -0.010308   0.031535
    13  H   -0.086903   0.018945   0.486539   0.005467  -0.074871  -0.003437
    14  H   -0.098819  -0.001719   0.511883   0.001487  -0.069471  -0.003071
    15  H    0.012913  -0.074333   0.005447   0.479334  -0.002797  -0.070024
    16  H   -0.000473  -0.099671   0.001929   0.514389  -0.004133  -0.071347
    17  H    0.029556   0.007016  -0.085840   0.005298   0.459498   0.001026
    18  H   -0.005478   0.006949  -0.053963   0.002721   0.448156   0.000965
    19  H    0.007069   0.025877   0.004270  -0.081071   0.000914   0.461932
    20  H    0.005477  -0.001322   0.003787  -0.058764   0.001076   0.450793
    21  H   -0.018893  -0.001879  -0.032776  -0.001388  -0.009779   0.000155
    22  H   -0.013582  -0.004877  -0.044567  -0.000919   0.000829   0.000155
    23  H    0.013057   0.000276   0.052447  -0.001708  -0.057556  -0.000353
    24  H    0.000767   0.011379  -0.001806   0.056024  -0.000335  -0.059916
    25  H   -0.003642  -0.014260  -0.001061  -0.040539   0.000116  -0.002832
    26  H   -0.002116  -0.015774  -0.001145  -0.039755   0.000216  -0.005947
               7          8          9         10         11         12
     1  C   -0.203153  -0.118685   0.511284   0.536205  -0.073133  -0.110591
     2  C   -0.099778  -0.183232  -0.073167  -0.115750   0.510563   0.522769
     3  C    0.289335  -0.024052  -0.102623  -0.082822   0.020780  -0.009885
     4  C   -0.021555   0.250750   0.019287  -0.006604  -0.105849  -0.067934
     5  C   -0.272880  -0.007629   0.005905   0.031933   0.001032  -0.010308
     6  C   -0.007041  -0.249928  -0.000624  -0.008331   0.006512   0.031535
     7  C    6.093846  -0.000688  -0.002627   0.000379  -0.001768  -0.003987
     8  C   -0.000688   6.120955  -0.002150  -0.004332  -0.003473   0.002254
     9  H   -0.002627  -0.002150   0.570928  -0.094954  -0.017026   0.009000
    10  H    0.000379  -0.004332  -0.094954   0.581790   0.009330  -0.018287
    11  H   -0.001768  -0.003473  -0.017026   0.009330   0.561208  -0.088567
    12  H   -0.003987   0.002254   0.009000  -0.018287  -0.088567   0.567473
    13  H    0.007252   0.000284   0.013568  -0.023438   0.008777  -0.011223
    14  H    0.015766   0.000340  -0.026999   0.013461  -0.010840   0.008964
    15  H    0.000327   0.006754   0.009892  -0.012685   0.011066  -0.020624
    16  H    0.000291   0.017435  -0.011848   0.009906  -0.022723   0.011171
    17  H   -0.073442   0.000192  -0.002064   0.001529   0.002663  -0.000740
    18  H   -0.053036   0.000235   0.003317  -0.001744  -0.000968   0.003023
    19  H    0.000155  -0.075486   0.002938  -0.001012  -0.003428   0.002556
    20  H    0.000222  -0.054241  -0.001048   0.003340   0.004003  -0.003273
    21  H    0.421489  -0.000019   0.001613  -0.000092   0.000253  -0.000087
    22  H    0.418530  -0.000019  -0.000162   0.001083   0.000048   0.000388
    23  H    0.349552  -0.000029   0.000264   0.001050  -0.000054  -0.000172
    24  H   -0.000025   0.350259  -0.000077  -0.000164   0.000453   0.000923
    25  H   -0.000018   0.417653   0.000041   0.000359  -0.000262   0.001288
    26  H   -0.000016   0.421348   0.000219  -0.000016   0.001628  -0.000203
              13         14         15         16         17         18
     1  C   -0.086903  -0.098819   0.012913  -0.000473   0.029556  -0.005478
     2  C    0.018945  -0.001719  -0.074333  -0.099671   0.007016   0.006949
     3  C    0.486539   0.511883   0.005447   0.001929  -0.085840  -0.053963
     4  C    0.005467   0.001487   0.479334   0.514389   0.005298   0.002721
     5  C   -0.074871  -0.069471  -0.002797  -0.004133   0.459498   0.448156
     6  C   -0.003437  -0.003071  -0.070024  -0.071347   0.001026   0.000965
     7  C    0.007252   0.015766   0.000327   0.000291  -0.073442  -0.053036
     8  C    0.000284   0.000340   0.006754   0.017435   0.000192   0.000235
     9  H    0.013568  -0.026999   0.009892  -0.011848  -0.002064   0.003317
    10  H   -0.023438   0.013461  -0.012685   0.009906   0.001529  -0.001744
    11  H    0.008777  -0.010840   0.011066  -0.022723   0.002663  -0.000968
    12  H   -0.011223   0.008964  -0.020624   0.011171  -0.000740   0.003023
    13  H    0.584750  -0.096551   0.004893  -0.002076   0.010928  -0.021107
    14  H   -0.096551   0.575396  -0.002000   0.005022  -0.019697   0.010538
    15  H    0.004893  -0.002000   0.571776  -0.092101   0.000500  -0.000278
    16  H   -0.002076   0.005022  -0.092101   0.567896  -0.000260   0.000346
    17  H    0.010928  -0.019697   0.000500  -0.000260   0.555310  -0.074061
    18  H   -0.021107   0.010538  -0.000278   0.000346  -0.074061   0.551578
    19  H    0.000571  -0.000279   0.010067  -0.018333  -0.000108   0.000017
    20  H   -0.000317   0.000303  -0.020382   0.009677   0.000009  -0.000126
    21  H    0.002301   0.000497   0.000018  -0.000072  -0.022696   0.012335
    22  H    0.001200   0.000795  -0.000048   0.000021   0.013121  -0.022857
    23  H   -0.001667  -0.000293  -0.000050  -0.000040  -0.003729  -0.003119
    24  H   -0.000050  -0.000037  -0.001423  -0.000512   0.000010   0.000008
    25  H   -0.000046   0.000019   0.000691   0.001101  -0.000025   0.000019
    26  H    0.000007  -0.000062   0.002455   0.000378   0.000019  -0.000021
              19         20         21         22         23         24
     1  C    0.007069   0.005477  -0.018893  -0.013582   0.013057   0.000767
     2  C    0.025877  -0.001322  -0.001879  -0.004877   0.000276   0.011379
     3  C    0.004270   0.003787  -0.032776  -0.044567   0.052447  -0.001806
     4  C   -0.081071  -0.058764  -0.001388  -0.000919  -0.001708   0.056024
     5  C    0.000914   0.001076  -0.009779   0.000829  -0.057556  -0.000335
     6  C    0.461932   0.450793   0.000155   0.000155  -0.000353  -0.059916
     7  C    0.000155   0.000222   0.421489   0.418530   0.349552  -0.000025
     8  C   -0.075486  -0.054241  -0.000019  -0.000019  -0.000029   0.350259
     9  H    0.002938  -0.001048   0.001613  -0.000162   0.000264  -0.000077
    10  H   -0.001012   0.003340  -0.000092   0.001083   0.001050  -0.000164
    11  H   -0.003428   0.004003   0.000253   0.000048  -0.000054   0.000453
    12  H    0.002556  -0.003273  -0.000087   0.000388  -0.000172   0.000923
    13  H    0.000571  -0.000317   0.002301   0.001200  -0.001667  -0.000050
    14  H   -0.000279   0.000303   0.000497   0.000795  -0.000293  -0.000037
    15  H    0.010067  -0.020382   0.000018  -0.000048  -0.000050  -0.001423
    16  H   -0.018333   0.009677  -0.000072   0.000021  -0.000040  -0.000512
    17  H   -0.000108   0.000009  -0.022696   0.013121  -0.003729   0.000010
    18  H    0.000017  -0.000126   0.012335  -0.022857  -0.003119   0.000008
    19  H    0.556737  -0.074600   0.000021  -0.000026   0.000009  -0.004269
    20  H   -0.074600   0.550980  -0.000018   0.000019   0.000009  -0.002548
    21  H    0.000021  -0.000018   0.558393  -0.070835  -0.023668   0.000000
    22  H   -0.000026   0.000019  -0.070835   0.558488  -0.022148   0.000001
    23  H    0.000009   0.000009  -0.023668  -0.022148   0.482792  -0.000002
    24  H   -0.004269  -0.002548   0.000000   0.000001  -0.000002   0.483586
    25  H    0.013495  -0.023198   0.000003  -0.000004   0.000001  -0.023306
    26  H   -0.023127   0.012512  -0.000004   0.000003   0.000001  -0.022929
              25         26
     1  C   -0.003642  -0.002116
     2  C   -0.014260  -0.015774
     3  C   -0.001061  -0.001145
     4  C   -0.040539  -0.039755
     5  C    0.000116   0.000216
     6  C   -0.002832  -0.005947
     7  C   -0.000018  -0.000016
     8  C    0.417653   0.421348
     9  H    0.000041   0.000219
    10  H    0.000359  -0.000016
    11  H   -0.000262   0.001628
    12  H    0.001288  -0.000203
    13  H   -0.000046   0.000007
    14  H    0.000019  -0.000062
    15  H    0.000691   0.002455
    16  H    0.001101   0.000378
    17  H   -0.000025   0.000019
    18  H    0.000019  -0.000021
    19  H    0.013495  -0.023127
    20  H   -0.023198   0.012512
    21  H    0.000003  -0.000004
    22  H   -0.000004   0.000003
    23  H    0.000001   0.000001
    24  H   -0.023306  -0.022929
    25  H    0.560132  -0.071150
    26  H   -0.071150   0.558468
 Mulliken charges:
               1
     1  C   -0.173023
     2  C   -0.215584
     3  C   -0.383999
     4  C   -0.348271
     5  C   -0.291675
     6  C   -0.288648
     7  C   -0.857132
     8  C   -0.864497
     9  H    0.187112
    10  H    0.179863
    11  H    0.189777
    12  H    0.184539
    13  H    0.176206
    14  H    0.185366
    15  H    0.180614
    16  H    0.184027
    17  H    0.195988
    18  H    0.196551
    19  H    0.195110
    20  H    0.197629
    21  H    0.185128
    22  H    0.185362
    23  H    0.215132
    24  H    0.213990
    25  H    0.185425
    26  H    0.185010
 Sum of Mulliken charges =  -0.00000
 Mulliken charges with hydrogens summed into heavy atoms:
               1
     1  C    0.193953
     2  C    0.158732
     3  C   -0.022427
     4  C    0.016369
     5  C    0.100863
     6  C    0.104091
     7  C   -0.271510
     8  C   -0.280072
 Electronic spatial extent (au):  <R**2>=           2403.6139
 Charge=              0.0000 electrons
 Dipole moment (field-independent basis, Debye):
    X=              0.0039    Y=              0.0017    Z=             -0.0001  Tot=              0.0042
 Quadrupole moment (field-independent basis, Debye-Ang):
   XX=            -57.7064   YY=            -56.8577   ZZ=            -54.7575
   XY=              0.8363   XZ=             -0.0032   YZ=             -0.0008
 Traceless Quadrupole moment (field-independent basis, Debye-Ang):
   XX=             -1.2659   YY=             -0.4172   ZZ=              1.6830
   XY=              0.8363   XZ=             -0.0032   YZ=             -0.0008
 Octapole moment (field-independent basis, Debye-Ang**2):
  XXX=             -0.8482  YYY=              0.0114  ZZZ=              0.1337  XYY=              0.0874
  XXY=              0.0093  XXZ=             -0.0145  XZZ=              0.0528  YZZ=              0.0043
  YYZ=             -0.0842  XYZ=              0.0327
 Hexadecapole moment (field-independent basis, Debye-Ang**3):
 XXXX=          -3194.1774 YYYY=           -206.0907 ZZZZ=           -120.7330 XXXY=             38.7503
 XXXZ=             -0.2556 YYYX=              2.6144 YYYZ=             -0.0261 ZZZX=             -0.2452
 ZZZY=              0.0023 XXYY=           -555.0783 XXZZ=           -533.4452 YYZZ=            -48.3255
 XXYZ=              0.0846 YYXZ=             -0.0223 ZZXY=             -2.6413
 N-N= 3.757585980053D+02 E-N=-1.480992385104D+03  KE= 3.138733225882D+02
 R6APFD:  NTU= -4 IXU= 1 FactS= 1.050
 Calling FoFJK, ICntrl=      2127 FMM=F ISym2X=0 I1Cent= 0 IOpClX= 0 NMat=1 NMatS=1 NMatT=0.
 ***** Axes restored to original set *****
 -------------------------------------------------------------------
 Center     Atomic                   Forces (Hartrees/Bohr)
 Number     Number              X              Y              Z
 -------------------------------------------------------------------
      1        6          -0.003723046    0.005842416   -0.000635087
      2        6          -0.003188080   -0.011068797   -0.000097889
      3        6           0.003871701   -0.005775037   -0.000348588
      4        6          -0.001013575    0.012922489   -0.000001564
      5        6           0.003154044    0.005366533    0.000990775
      6        6           0.000093086   -0.007137189    0.000767940
      7        6          -0.003059294   -0.003321038   -0.000211449
      8        6           0.003688976    0.003214279   -0.000488375
      9        1           0.000518756   -0.002814316    0.001890742
     10        1           0.000439875   -0.002746604   -0.001899856
     11        1           0.000399195    0.002688303    0.001796764
     12        1           0.000195241    0.002628704   -0.001879497
     13        1          -0.000392284    0.002915076   -0.001955132
     14        1          -0.000912542    0.002780184    0.002024424
     15        1          -0.000103651   -0.002525553   -0.001781700
     16        1           0.000376054   -0.002480185    0.001872346
     17        1           0.001540567   -0.002958902    0.001334284
     18        1           0.001753593   -0.002739340   -0.001535733
     19        1          -0.001975480    0.002741944    0.001300437
     20        1          -0.001961096    0.002590163   -0.001444708
     21        1          -0.000445595    0.001731751    0.001070817
     22        1          -0.000387358    0.001854615   -0.000961762
     23        1          -0.003163028    0.001315674   -0.000026352
     24        1           0.003338756   -0.001371087    0.000006876
     25        1           0.000478559   -0.001875338   -0.000951567
     26        1           0.000476628   -0.001778745    0.001163856
 -------------------------------------------------------------------
 Cartesian Forces:  Max     0.012922489 RMS     0.003031401

 GradGradGradGradGradGradGradGradGradGradGradGradGradGradGradGradGradGrad
 Berny optimization.
 FormGI is forming the generalized inverse of G from B-inverse, IUseBI=4.
 Internal  Forces:  Max     0.007689128 RMS     0.001780823
 Search for a local minimum.
 Step number   1 out of a maximum of  146
 All quantities printed in internal units (Hartrees-Bohrs-Radians)
 Mixed Optimization -- RFO/linear search
 Second derivative matrix not updated -- first step.
 ITU=  0
     Eigenvalues ---    0.00350   0.00364   0.00364   0.00378   0.00387
     Eigenvalues ---    0.00488   0.00497   0.03463   0.03469   0.03678
     Eigenvalues ---    0.03683   0.03721   0.03726   0.04820   0.04824
     Eigenvalues ---    0.04880   0.04883   0.04926   0.04928   0.05600
     Eigenvalues ---    0.05608   0.05699   0.05703   0.08080   0.08110
     Eigenvalues ---    0.08141   0.08167   0.08452   0.08455   0.12014
     Eigenvalues ---    0.12035   0.12050   0.12068   0.12291   0.12292
     Eigenvalues ---    0.16000   0.16000   0.16000   0.16000   0.16000
     Eigenvalues ---    0.16000   0.21897   0.21898   0.21905   0.21906
     Eigenvalues ---    0.21932   0.21934   0.29291   0.29386   0.29389
     Eigenvalues ---    0.29487   0.29548   0.30266   0.30337   0.33985
     Eigenvalues ---    0.34000   0.34008   0.34018   0.34030   0.34031
     Eigenvalues ---    0.34048   0.34058   0.34097   0.34106   0.34113
     Eigenvalues ---    0.34125   0.34268   0.34274   0.34276   0.34288
     Eigenvalues ---    0.34297   0.34304
 RFO step:  Lambda=-2.23222850D-03 EMin= 3.50149817D-03
 Linear search not attempted -- first point.
 Iteration  1 RMS(Cart)=  0.02667046 RMS(Int)=  0.00022147
 Iteration  2 RMS(Cart)=  0.00043132 RMS(Int)=  0.00007539
 Iteration  3 RMS(Cart)=  0.00000008 RMS(Int)=  0.00007539
 Variable       Old X    -DE/DX   Delta X   Delta X   Delta X     New X
                                 (Linear)    (Quad)   (Total)
    R1        2.89199  -0.00020   0.00000  -0.00067  -0.00067   2.89132
    R2        2.89399  -0.00109   0.00000  -0.00370  -0.00370   2.89029
    R3        2.07299   0.00320   0.00000   0.00935   0.00935   2.08234
    R4        2.07355   0.00318   0.00000   0.00929   0.00929   2.08284
    R5        2.89204   0.00051   0.00000   0.00171   0.00171   2.89375
    R6        2.07233   0.00304   0.00000   0.00886   0.00886   2.08119
    R7        2.07250   0.00307   0.00000   0.00895   0.00895   2.08145
    R8        2.88998  -0.00027   0.00000  -0.00089  -0.00089   2.88909
    R9        2.07330   0.00335   0.00000   0.00978   0.00978   2.08308
   R10        2.07316   0.00329   0.00000   0.00960   0.00960   2.08276
   R11        2.88874   0.00124   0.00000   0.00416   0.00416   2.89290
   R12        2.07277   0.00295   0.00000   0.00862   0.00862   2.08139
   R13        2.07279   0.00297   0.00000   0.00868   0.00868   2.08147
   R14        2.87436   0.00679   0.00000   0.02226   0.02226   2.89663
   R15        2.07140   0.00288   0.00000   0.00840   0.00840   2.07980
   R16        2.07119   0.00285   0.00000   0.00831   0.00831   2.07950
   R17        2.87297   0.00769   0.00000   0.02516   0.02516   2.89813
   R18        2.07167   0.00272   0.00000   0.00794   0.00794   2.07961
   R19        2.07152   0.00269   0.00000   0.00782   0.00782   2.07934
   R20        2.06871   0.00187   0.00000   0.00543   0.00543   2.07413
   R21        2.06866   0.00191   0.00000   0.00555   0.00555   2.07421
   R22        2.06833   0.00173   0.00000   0.00502   0.00502   2.07335
   R23        2.06820   0.00184   0.00000   0.00534   0.00534   2.07354
   R24        2.06880   0.00192   0.00000   0.00557   0.00557   2.07438
   R25        2.06847   0.00198   0.00000   0.00573   0.00573   2.07420
    A1        1.97989  -0.00190   0.00000  -0.00692  -0.00691   1.97297
    A2        1.90915   0.00035   0.00000  -0.00114  -0.00113   1.90801
    A3        1.90393   0.00063   0.00000   0.00425   0.00426   1.90819
    A4        1.90337   0.00092   0.00000   0.00494   0.00493   1.90830
    A5        1.90074   0.00095   0.00000   0.00835   0.00835   1.90909
    A6        1.86317  -0.00089   0.00000  -0.00972  -0.00973   1.85345
    A7        1.94086   0.00471   0.00000   0.02586   0.02578   1.96665
    A8        1.91205  -0.00102   0.00000  -0.00123  -0.00122   1.91083
    A9        1.90976  -0.00108   0.00000  -0.00003  -0.00010   1.90966
   A10        1.91567  -0.00161   0.00000  -0.00785  -0.00794   1.90773
   A11        1.91335  -0.00134   0.00000  -0.00392  -0.00407   1.90928
   A12        1.87080   0.00017   0.00000  -0.01431  -0.01438   1.85643
   A13        1.97971  -0.00181   0.00000  -0.00646  -0.00645   1.97326
   A14        1.90276   0.00079   0.00000   0.00687   0.00687   1.90963
   A15        1.90180   0.00123   0.00000   0.00856   0.00855   1.91034
   A16        1.90363   0.00067   0.00000   0.00365   0.00366   1.90729
   A17        1.90958   0.00005   0.00000  -0.00311  -0.00310   1.90648
   A18        1.86276  -0.00087   0.00000  -0.00977  -0.00979   1.85296
   A19        1.94318   0.00544   0.00000   0.02922   0.02915   1.97232
   A20        1.91418  -0.00170   0.00000  -0.00591  -0.00599   1.90819
   A21        1.91090  -0.00121   0.00000  -0.00166  -0.00172   1.90918
   A22        1.91048  -0.00131   0.00000  -0.00300  -0.00306   1.90741
   A23        1.91394  -0.00178   0.00000  -0.00660  -0.00671   1.90723
   A24        1.86971   0.00035   0.00000  -0.01376  -0.01383   1.85588
   A25        1.94382   0.00216   0.00000   0.01420   0.01417   1.95799
   A26        1.91565  -0.00127   0.00000  -0.00949  -0.00969   1.90596
   A27        1.91630  -0.00147   0.00000  -0.01221  -0.01239   1.90392
   A28        1.90697   0.00044   0.00000   0.01178   0.01182   1.91879
   A29        1.90749   0.00050   0.00000   0.01122   0.01128   1.91878
   A30        1.87217  -0.00045   0.00000  -0.01646  -0.01667   1.85550
   A31        1.94592   0.00298   0.00000   0.01806   0.01804   1.96396
   A32        1.91735  -0.00182   0.00000  -0.01356  -0.01385   1.90349
   A33        1.91739  -0.00182   0.00000  -0.01502  -0.01525   1.90214
   A34        1.90389   0.00050   0.00000   0.01427   0.01435   1.91824
   A35        1.90627   0.00032   0.00000   0.01128   0.01138   1.91765
   A36        1.87144  -0.00026   0.00000  -0.01606  -0.01637   1.85507
   A37        1.93750   0.00001   0.00000  -0.00211  -0.00219   1.93531
   A38        1.93741  -0.00000   0.00000  -0.00222  -0.00230   1.93511
   A39        1.92397   0.00428   0.00000   0.03075   0.03065   1.95462
   A40        1.89061  -0.00096   0.00000  -0.01415  -0.01419   1.87642
   A41        1.88622  -0.00175   0.00000  -0.00660  -0.00670   1.87951
   A42        1.88648  -0.00175   0.00000  -0.00663  -0.00673   1.87976
   A43        1.92442   0.00447   0.00000   0.03194   0.03183   1.95625
   A44        1.93711   0.00009   0.00000  -0.00164  -0.00172   1.93539
   A45        1.93749  -0.00001   0.00000  -0.00232  -0.00240   1.93510
   A46        1.88633  -0.00188   0.00000  -0.00727  -0.00738   1.87895
   A47        1.88640  -0.00185   0.00000  -0.00732  -0.00742   1.87899
   A48        1.89043  -0.00101   0.00000  -0.01445  -0.01449   1.87595
    D1       -3.12481  -0.00025   0.00000  -0.01573  -0.01573  -3.14054
    D2        1.03769  -0.00061   0.00000  -0.02196  -0.02198   1.01571
    D3       -1.00857   0.00040   0.00000  -0.00392  -0.00389  -1.01246
    D4        1.02923  -0.00038   0.00000  -0.01652  -0.01653   1.01271
    D5       -1.09146  -0.00074   0.00000  -0.02274  -0.02277  -1.11423
    D6       -3.13771   0.00028   0.00000  -0.00471  -0.00468   3.14079
    D7       -1.00284   0.00014   0.00000  -0.00662  -0.00663  -1.00947
    D8       -3.12353  -0.00022   0.00000  -0.01285  -0.01287  -3.13640
    D9        1.11340   0.00079   0.00000   0.00519   0.00522   1.11862
   D10        3.08870   0.00040   0.00000   0.02459   0.02460   3.11330
   D11        0.96399   0.00020   0.00000   0.01930   0.01931   0.98331
   D12       -1.06283   0.00012   0.00000   0.02244   0.02243  -1.04040
   D13       -1.06213   0.00022   0.00000   0.02202   0.02202  -1.04011
   D14        3.09635   0.00001   0.00000   0.01673   0.01673   3.11308
   D15        1.06952  -0.00006   0.00000   0.01987   0.01985   1.08937
   D16        0.96495   0.00019   0.00000   0.01777   0.01778   0.98272
   D17       -1.15976  -0.00002   0.00000   0.01248   0.01249  -1.14727
   D18        3.09660  -0.00009   0.00000   0.01562   0.01561   3.11221
   D19        3.11449   0.00017   0.00000   0.01056   0.01055   3.12504
   D20        0.99738  -0.00060   0.00000  -0.00085  -0.00083   0.99656
   D21       -1.04944   0.00068   0.00000   0.02023   0.02026  -1.02918
   D22       -1.05012   0.00089   0.00000   0.02072   0.02066  -1.02946
   D23        3.11596   0.00012   0.00000   0.00931   0.00928   3.12524
   D24        1.06913   0.00140   0.00000   0.03039   0.03037   1.09951
   D25        1.00036  -0.00064   0.00000  -0.00361  -0.00361   0.99674
   D26       -1.11675  -0.00141   0.00000  -0.01502  -0.01499  -1.13174
   D27        3.11961  -0.00013   0.00000   0.00606   0.00610   3.12570
   D28        3.13257   0.00006   0.00000   0.00144   0.00145   3.13402
   D29        1.01846  -0.00105   0.00000  -0.01630  -0.01620   1.00226
   D30       -1.03541   0.00112   0.00000   0.01666   0.01657  -1.01885
   D31       -1.02639   0.00033   0.00000   0.00853   0.00853  -1.01786
   D32       -3.14050  -0.00078   0.00000  -0.00921  -0.00912   3.13357
   D33        1.08881   0.00139   0.00000   0.02374   0.02365   1.11246
   D34        1.00526  -0.00031   0.00000  -0.00288  -0.00288   1.00238
   D35       -1.10886  -0.00143   0.00000  -0.02062  -0.02053  -1.12939
   D36        3.12046   0.00075   0.00000   0.01234   0.01224   3.13269
   D37        3.11760   0.00023   0.00000   0.01080   0.01078   3.12837
   D38        1.00484  -0.00113   0.00000  -0.00991  -0.00978   0.99506
   D39       -1.04980   0.00136   0.00000   0.02677   0.02660  -1.02320
   D40       -1.04632   0.00076   0.00000   0.02042   0.02043  -1.02589
   D41        3.12411  -0.00059   0.00000  -0.00028  -0.00013   3.12398
   D42        1.06947   0.00189   0.00000   0.03639   0.03625   1.10572
   D43        1.00012  -0.00062   0.00000  -0.00182  -0.00181   0.99831
   D44       -1.11263  -0.00197   0.00000  -0.02253  -0.02237  -1.13500
   D45        3.11591   0.00051   0.00000   0.01415   0.01402   3.12993
   D46       -1.05212   0.00053   0.00000   0.00811   0.00812  -1.04400
   D47        1.05180  -0.00068   0.00000  -0.01270  -0.01271   1.03909
   D48        3.14157  -0.00008   0.00000  -0.00234  -0.00235   3.13923
   D49        1.06706   0.00064   0.00000   0.01333   0.01339   1.08045
   D50       -3.11221  -0.00058   0.00000  -0.00748  -0.00745  -3.11965
   D51       -1.02244   0.00003   0.00000   0.00288   0.00292  -1.01952
   D52        3.11073   0.00063   0.00000   0.00666   0.00663   3.11736
   D53       -1.06854  -0.00058   0.00000  -0.01415  -0.01421  -1.08274
   D54        1.02123   0.00002   0.00000  -0.00379  -0.00384   1.01740
   D55        3.14054  -0.00004   0.00000  -0.00245  -0.00246   3.13807
   D56        1.05086  -0.00066   0.00000  -0.01315  -0.01319   1.03767
   D57       -1.05263   0.00056   0.00000   0.00777   0.00777  -1.04486
   D58       -1.02206  -0.00006   0.00000   0.00184   0.00191  -1.02015
   D59       -3.11174  -0.00068   0.00000  -0.00886  -0.00881  -3.12055
   D60        1.06796   0.00054   0.00000   0.01206   0.01215   1.08011
   D61        1.01828   0.00009   0.00000  -0.00298  -0.00303   1.01525
   D62       -1.07140  -0.00053   0.00000  -0.01368  -0.01375  -1.08515
   D63        3.10830   0.00069   0.00000   0.00725   0.00721   3.11551
         Item               Value     Threshold  Converged?
 Maximum Force            0.007689     0.000450     NO 
 RMS     Force            0.001781     0.000300     NO 
 Maximum Displacement     0.099437     0.001800     NO 
 RMS     Displacement     0.026548     0.001200     NO 
 Predicted change in Energy=-1.139813D-03
 GradGradGradGradGradGradGradGradGradGradGradGradGradGradGradGradGradGrad

                          Input orientation:                          
 ---------------------------------------------------------------------
 Center     Atomic      Atomic             Coordinates (Angstroms)
 Number     Number       Type             X           Y           Z
 ---------------------------------------------------------------------
      1          6           0       -0.622790   -0.441101    0.013015
      2          6           0        0.621051    0.449858    0.009181
      3          6           0       -1.929067    0.354474    0.013988
      4          6           0        1.923822   -0.354929    0.006749
      5          6           0       -3.171982   -0.535029   -0.021974
      6          6           0        3.173225    0.529254   -0.020416
      7          6           0       -4.468912    0.281908   -0.009655
      8          6           0        4.471320   -0.287248   -0.003889
      9          1           0       -0.596368   -1.100281    0.895639
     10          1           0       -0.599157   -1.104450   -0.866893
     11          1           0        0.602630    1.110143    0.890420
     12          1           0        0.596632    1.108922   -0.873001
     13          1           0       -1.943824    1.035684   -0.852520
     14          1           0       -1.967494    0.995994    0.909368
     15          1           0        1.935186   -1.027647   -0.865292
     16          1           0        1.955562   -1.001973    0.897562
     17          1           0       -3.151822   -1.220213    0.839073
     18          1           0       -3.135659   -1.167878   -0.921486
     19          1           0        3.149087    1.212141    0.842219
     20          1           0        3.142515    1.164832   -0.918104
     21          1           0       -4.532724    0.901138    0.894322
     22          1           0       -4.515190    0.955308   -0.875202
     23          1           0       -5.358709   -0.359375   -0.037938
     24          1           0        5.361920    0.353296   -0.027096
     25          1           0        4.521986   -0.959407   -0.870266
     26          1           0        4.531263   -0.908220    0.899198
 ---------------------------------------------------------------------
                    Distance matrix (angstroms):
                    1          2          3          4          5
     1  C    0.000000
     2  C    1.530021   0.000000
     3  C    1.529476   2.551905   0.000000
     4  C    2.548078   1.531307   3.917660   0.000000
     5  C    2.551161   3.918937   1.528838   5.099066   0.000000
     6  C    3.918219   2.553580   5.105400   1.530857   6.433844
     7  C    3.913555   5.092768   2.540992   6.424398   1.532829
     8  C    5.096461   3.920213   6.432501   2.548419   7.647338
     9  H    1.101926   2.161215   2.160950   2.774353   2.792008
    10  H    1.102192   2.161547   2.161728   2.773167   2.767229
    11  H    2.162834   1.101316   2.783641   2.161680   4.217433
    12  H    2.162079   1.101456   2.781203   2.162927   4.198722
    13  H    2.162215   2.768448   1.102316   4.198909   2.159934
    14  H    2.162618   2.794488   1.102148   4.216877   2.159217
    15  H    2.767436   2.162100   4.197123   1.101424   5.199713
    16  H    2.782967   2.162859   4.208443   1.101464   5.230228
    17  H    2.772253   4.208613   2.157669   5.215711   1.100585
    18  H    2.777770   4.194768   2.156045   5.207769   1.100426
    19  H    4.200934   2.768753   5.216244   2.157543   6.614782
    20  H    4.198039   2.780077   5.219810   2.156441   6.600412
    21  H    4.226806   5.248668   2.802295   6.637204   2.180319
    22  H    4.229617   5.236275   2.799945   6.629889   2.180208
    23  H    4.736898   6.034451   3.503530   7.282669   2.193829
    24  H    6.037337   4.741991   7.291102   3.510448   8.580013
    25  H    5.245718   4.239900   6.642611   2.808025   7.752215
    26  H    5.250503   4.233942   6.641826   2.810933   7.767098
                    6          7          8          9         10
     6  C    0.000000
     7  C    7.646147   0.000000
     8  C    1.533623   8.958333   0.000000
     9  H    4.207657   4.210297   5.210723   0.000000
    10  H    4.197186   4.199030   5.207910   1.762538   0.000000
    11  H    2.788371   5.216958   4.209424   2.514677   3.071947
    12  H    2.775203   5.204715   4.209259   3.071142   2.515742
    13  H    5.208941   2.766708   6.604877   3.071489   2.527550
    14  H    5.244934   2.758916   6.628655   2.504903   3.072346
    15  H    2.161133   6.592384   2.778881   3.084626   2.535507
    16  H    2.161028   6.614020   2.766312   2.553824   3.106508
    17  H    6.618578   2.170584   7.726144   2.558891   3.072429
    18  H    6.595013   2.170456   7.712563   3.123221   2.537883
    19  H    1.100480   7.721719   2.170798   4.402111   4.726202
    20  H    1.100339   7.716130   2.170265   4.732827   4.376342
    21  H    7.768957   1.097585   9.126437   4.415945   4.753652
    22  H    7.747510   1.097625   9.113753   4.766391   4.424702
    23  H    8.578104   1.097170   9.830352   4.909215   4.888316
    24  H    2.195767   9.831107   1.097271   6.202058   6.193926
    25  H    2.181172   9.116895   1.097713   5.416255   5.123198
    26  H    2.180891   9.123901   1.097618   5.131228   5.429437
                   11         12         13         14         15
    11  H    0.000000
    12  H    1.763432   0.000000
    13  H    3.086715   2.541594   0.000000
    14  H    2.572727   3.124793   1.762495   0.000000
    15  H    3.070566   2.521252   4.393657   4.740828   0.000000
    16  H    2.508289   3.072046   4.734981   4.402542   1.763159
    17  H    4.419174   4.733600   3.067542   2.513791   5.368388
    18  H    4.737846   4.372203   2.506174   3.065775   5.073095
    19  H    2.548955   3.076957   5.370384   5.121585   3.066888
    20  H    3.118456   2.546897   5.088401   5.429581   2.503478
    21  H    5.139606   5.429262   3.126014   2.567027   6.974977
    22  H    5.416038   5.114130   2.572722   3.110804   6.748300
    23  H    6.209581   6.190259   3.777720   3.772897   7.371025
    24  H    4.905660   4.898418   7.383825   7.416895   3.788414
    25  H    4.769110   4.436936   6.766639   7.007428   2.587705
    26  H    4.416789   4.763494   6.983841   6.771999   3.141227
                   16         17         18         19         20
    16  H    0.000000
    17  H    5.112379   0.000000
    18  H    5.408973   1.761411   0.000000
    19  H    2.515922   6.754096   6.947890   0.000000
    20  H    3.066031   6.956636   6.697538   1.760970   0.000000
    21  H    6.761634   2.531812   3.087033   7.688281   7.890736
    22  H    6.988868   3.087135   2.532423   7.858539   7.660691
    23  H    7.401801   2.525973   2.525130   8.696375   8.681515
    24  H    3.780876   8.701148   8.678868   2.527835   2.525519
    25  H    3.116659   7.866206   7.660654   3.087568   2.533303
    26  H    2.577407   7.689652   7.884415   2.531715   3.086868
                   21         22         23         24         25
    21  H    0.000000
    22  H    1.770439   0.000000
    23  H    1.772076   1.772265   0.000000
    24  H    9.952543   9.931717  10.744296   0.000000
    25  H    9.410801   9.237787   9.933828   1.771895   0.000000
    26  H    9.242816   9.405293   9.949422   1.771845   1.770229
                   26
    26  H    0.000000
 Stoichiometry    C8H18
 Framework group  C1[X(C8H18)]
 Deg. of freedom    72
 Full point group                 C1      NOp   1
 Largest Abelian subgroup         C1      NOp   1
 Largest concise Abelian subgroup C1      NOp   1
                         Standard orientation:                         
 ---------------------------------------------------------------------
 Center     Atomic      Atomic             Coordinates (Angstroms)
 Number     Number       Type             X           Y           Z
 ---------------------------------------------------------------------
      1          6           0       -0.619975   -0.444094    0.015062
      2          6           0        0.618920    0.453727    0.010708
      3          6           0       -1.930630    0.344246    0.016154
      4          6           0        1.926121   -0.343845    0.008159
      5          6           0       -3.168616   -0.552124   -0.019289
      6          6           0        3.170609    0.547225   -0.019525
      7          6           0       -4.470041    0.257632   -0.006857
      8          6           0        4.473203   -0.262083   -0.003110
      9          1           0       -0.589696   -1.102900    0.897842
     10          1           0       -0.592885   -1.107521   -0.864688
     11          1           0        0.597060    1.114118    0.891788
     12          1           0        0.590646    1.112427   -0.871631
     13          1           0       -1.949361    1.025149   -0.850518
     14          1           0       -1.972388    0.985765    0.911386
     15          1           0        1.940995   -1.016706   -0.863718
     16          1           0        1.961652   -0.990483    0.899125
     17          1           0       -3.144461   -1.236973    0.841923
     18          1           0       -3.129011   -1.184986   -0.918653
     19          1           0        3.142903    1.230182    0.842947
     20          1           0        3.136170    1.182402   -0.917362
     21          1           0       -4.537058    0.876724    0.896982
     22          1           0       -4.520249    0.930551   -0.872558
     23          1           0       -5.356285   -0.388568   -0.034768
     24          1           0        5.360242    0.383370   -0.026690
     25          1           0        4.527377   -0.934166   -0.869334
     26          1           0        4.536795   -0.882490    0.900115
 ---------------------------------------------------------------------
 Rotational constants (GHZ):          10.6063776           0.4910456           0.4805372
 Standard basis: 6-311++G(d,p) (5D, 7F)
 There are   310 symmetry adapted cartesian basis functions of A   symmetry.
 There are   302 symmetry adapted basis functions of A   symmetry.
   302 basis functions,   450 primitive gaussians,   310 cartesian basis functions
    33 alpha electrons       33 beta electrons
       nuclear repulsion energy       374.2742814015 Hartrees.
 NAtoms=   26 NActive=   26 NUniq=   26 SFac= 1.00D+00 NAtFMM=   60 NAOKFM=F Big=F
 Integral buffers will be    131072 words long.
 Raffenetti 2 integral format.
 Two-electron integral symmetry is turned on.
 R6APFD:  NTU= -4 IXU= 1 FactS= 1.050
 Nuclear repulsion after empirical dispersion term =      374.2586711047 Hartrees.
 One-electron integrals computed using PRISM.
 NBasis=   302 RedAO= T EigKep=  4.88D-06  NBF=   302
 NBsUse=   302 1.00D-06 EigRej= -1.00D+00 NBFU=   302
 Initial guess from the checkpoint file:  "OTAE0049.chk"
 B after Tr=     0.000000    0.000000    0.000000
         Rot=    1.000000   -0.000011   -0.000058   -0.000259 Ang=  -0.03 deg.
 ExpMin= 3.60D-02 ExpMax= 4.56D+03 ExpMxC= 6.82D+02 IAcc=3 IRadAn=         5 AccDes= 0.00D+00
 Harris functional with IExCor= 1009 and IRadAn=       5 diagonalized for initial guess.
 HarFok:  IExCor= 1009 AccDes= 0.00D+00 IRadAn=         5 IDoV= 1 UseB2=F ITyADJ=14
 ICtDFT=  3500011 ScaDFX=  1.000000  1.000000  1.000000  1.000000
 FoFCou: FMM=F IPFlag=           0 FMFlag=      100000 FMFlg1=           0
         NFxFlg=           0 DoJE=T BraDBF=F KetDBF=T FulRan=T
         wScrn=  0.000000 ICntrl=       500 IOpCl=  0 I1Cent=   200000004 NGrid=           0
         NMat0=    1 NMatS0=      1 NMatT0=    0 NMatD0=    1 NMtDS0=    0 NMtDT0=    0
 Petite list used in FoFCou.
 Requested convergence on RMS density matrix=1.00D-08 within  32 cycles.
 Requested convergence on MAX density matrix=1.00D-06.
 Requested convergence on             energy=1.00D-06.
 No special actions if energy rises.
 SCF Done:  E(RM08HX) =  -315.732288097     A.U. after    9 cycles
            NFock=  9  Conv=0.56D-08     -V/T= 2.0064
 QCSCF skips out because SCF is already converged.
 R6APFD:  NTU= -4 IXU= 1 FactS= 1.050
 Calling FoFJK, ICntrl=      2127 FMM=F ISym2X=0 I1Cent= 0 IOpClX= 0 NMat=1 NMatS=1 NMatT=0.
 ***** Axes restored to original set *****
 -------------------------------------------------------------------
 Center     Atomic                   Forces (Hartrees/Bohr)
 Number     Number              X              Y              Z
 -------------------------------------------------------------------
      1        6          -0.000087276    0.001263708    0.000079748
      2        6           0.000789173   -0.002464146    0.000059614
      3        6           0.000622487   -0.000414261    0.000023877
      4        6           0.000037468    0.001957019   -0.000029120
      5        6          -0.001132185    0.001469406    0.000011760
      6        6           0.000665336   -0.001524271   -0.000026058
      7        6           0.001118305   -0.001790812   -0.000056692
      8        6          -0.001774427    0.001358687   -0.000044486
      9        1          -0.000004801   -0.000514022   -0.000066638
     10        1           0.000000377   -0.000227566    0.000029855
     11        1          -0.000183352    0.000741647    0.000129371
     12        1          -0.000019621    0.000579365   -0.000161402
     13        1           0.000034248    0.000331484    0.000071389
     14        1           0.000225604    0.000494995   -0.000065096
     15        1           0.000033123   -0.000809202   -0.000154280
     16        1          -0.000127296   -0.000766936    0.000167907
     17        1          -0.000058568   -0.000319720   -0.000004399
     18        1          -0.000151709   -0.000448433   -0.000044011
     19        1           0.000164668    0.000378937    0.000055497
     20        1           0.000144966    0.000529372   -0.000068657
     21        1           0.000187522    0.000223183    0.000180834
     22        1           0.000198438    0.000225292   -0.000144417
     23        1           0.000417768    0.000191478    0.000000265
     24        1          -0.000659662   -0.000032902    0.000007206
     25        1          -0.000246844   -0.000200537   -0.000126103
     26        1          -0.000193741   -0.000231768    0.000174039
 -------------------------------------------------------------------
 Cartesian Forces:  Max     0.002464146 RMS     0.000653444

 GradGradGradGradGradGradGradGradGradGradGradGradGradGradGradGradGradGrad
 Berny optimization.
 Using GEDIIS/GDIIS optimizer.
 FormGI is forming the generalized inverse of G from B-inverse, IUseBI=4.
 Internal  Forces:  Max     0.002910614 RMS     0.000509946
 Search for a local minimum.
 Step number   2 out of a maximum of  146
 All quantities printed in internal units (Hartrees-Bohrs-Radians)
 Mixed Optimization -- En-DIIS/RFO-DIIS
 Update second derivatives using D2CorX and points    1    2
 DE= -1.05D-03 DEPred=-1.14D-03 R= 9.19D-01
 TightC=F SS=  1.41D+00  RLast= 1.54D-01 DXNew= 5.0454D-01 4.6333D-01
 Trust test= 9.19D-01 RLast= 1.54D-01 DXMaxT set to 4.63D-01
 ITU=  1  0
 Use linear search instead of GDIIS.
     Eigenvalues ---    0.00349   0.00364   0.00364   0.00378   0.00387
     Eigenvalues ---    0.00488   0.00497   0.03477   0.03479   0.03499
     Eigenvalues ---    0.03520   0.03593   0.03616   0.04597   0.04812
     Eigenvalues ---    0.04817   0.04828   0.04876   0.04890   0.05487
     Eigenvalues ---    0.05491   0.05573   0.05630   0.08298   0.08349
     Eigenvalues ---    0.08361   0.08408   0.08410   0.08450   0.12175
     Eigenvalues ---    0.12216   0.12217   0.12258   0.12260   0.12270
     Eigenvalues ---    0.15873   0.16000   0.16000   0.16000   0.16000
     Eigenvalues ---    0.16133   0.21121   0.21887   0.21898   0.21901
     Eigenvalues ---    0.21903   0.23031   0.28927   0.29344   0.29390
     Eigenvalues ---    0.29486   0.29553   0.30293   0.32485   0.33837
     Eigenvalues ---    0.33991   0.34005   0.34015   0.34031   0.34042
     Eigenvalues ---    0.34053   0.34074   0.34101   0.34103   0.34122
     Eigenvalues ---    0.34148   0.34252   0.34270   0.34275   0.34285
     Eigenvalues ---    0.34300   0.36519
 RFO step:  Lambda=-1.30113732D-04 EMin= 3.49340057D-03
 Quartic linear search produced a step of -0.05208.
 Iteration  1 RMS(Cart)=  0.01299264 RMS(Int)=  0.00004823
 Iteration  2 RMS(Cart)=  0.00007162 RMS(Int)=  0.00000374
 Iteration  3 RMS(Cart)=  0.00000000 RMS(Int)=  0.00000374
 Variable       Old X    -DE/DX   Delta X   Delta X   Delta X     New X
                                 (Linear)    (Quad)   (Total)
    R1        2.89132  -0.00139   0.00003  -0.00456  -0.00452   2.88680
    R2        2.89029  -0.00127   0.00019  -0.00450  -0.00431   2.88598
    R3        2.08234   0.00025  -0.00049   0.00169   0.00120   2.08354
    R4        2.08284   0.00011  -0.00048   0.00129   0.00081   2.08365
    R5        2.89375  -0.00201  -0.00009  -0.00631  -0.00640   2.88735
    R6        2.08119   0.00055  -0.00046   0.00246   0.00200   2.08319
    R7        2.08145   0.00048  -0.00047   0.00227   0.00180   2.08325
    R8        2.88909  -0.00020   0.00005  -0.00075  -0.00071   2.88838
[...]
 -0.00152153,-0.01661475,-0.02322913,0.00001681,-0.00000903,-0.00000011
 ,-0.04570791,0.00339003,0.00429354,0.00000439,0.00000498,-0.00000036,-
 0.00201468,0.01772631,0.02433264,0.00003622,-0.00000410,-0.00002352,0.
 00008926,0.00021010,0.00018495,-0.00060277,0.00046751,0.00064663,-0.00
 000737,0.00008687,0.00000384,-0.00000175,-0.00000148,-0.00000210,-0.00
 005162,0.00003188,0.00001607,-0.00430729,-0.00318194,0.00016763,0.0009
 5660,0.00057136,0.00048658,0.00000009,-0.00000190,-0.00000210,0.000007
 85,0.00000429,0.00000583,0.05553616,-0.00005655,0.00010444,0.00027632,
 0.00106652,0.00029365,0.00011659,-0.00001424,0.00001320,0.00006035,-0.
 00099494,-0.01309781,-0.01711462,0.00000499,0.00001187,-0.00000863,0.0
 0362599,-0.13370453,-0.11767404,-0.00000276,-0.00000727,-0.00000189,0.
 00114045,-0.01059106,-0.01409661,-0.00000368,-0.00006433,-0.00000681,0
 .00021691,0.00009618,0.00008673,-0.00054537,0.00059575,0.00016767,-0.0
 0008473,0.00000833,0.00010937,0.00000138,0.00000380,-0.00000136,-0.000
 03929,0.00002450,0.00000758,-0.00327746,-0.00176332,0.00025236,0.00057
 607,0.00003220,0.00012693,-0.00000191,-0.00000625,0.00000081,0.0000042
 9,0.00000021,0.00000573,-0.00364001,0.14727184,-0.00021295,0.00031784,
 0.00031295,0.00024800,0.00004535,0.00004436,-0.00005921,-0.00007170,-0
 .00003860,-0.00008727,0.00022547,0.00005436,-0.00002136,0.00002662,0.0
 0000773,0.00455468,-0.11872106,-0.21296453,-0.00000673,-0.00001120,-0.
 00000474,-0.00001472,0.00124045,0.00114209,0.00002469,0.00000721,-0.00
 002780,0.00019016,0.00008724,-0.00000974,-0.00066502,0.00011665,0.0001
 7446,0.00000601,-0.00010752,-0.00008425,-0.00000241,0.00000115,-0.0000
 1024,-0.00001869,0.00000598,0.00002664,0.00011144,0.00026087,0.0016182
 5,-0.00047740,-0.00010114,0.00070238,0.00000210,-0.00000082,-0.0000022
 8,0.00000583,0.00000573,0.00000411,-0.00494750,0.13171217,0.22771716,-
 0.00013880,-0.00008285,-0.00010521,0.00172866,-0.00079916,0.00106448,0
 .00001896,0.00007970,-0.00007986,-0.00153846,-0.01666250,0.02319354,0.
 00001679,-0.00000900,0.00000010,-0.04570201,0.00330942,-0.00416134,0.0
 0000438,0.00000497,0.00000037,-0.00199754,0.01777600,-0.02429943,0.000
 08955,0.00021051,-0.00018444,0.00003626,-0.00000415,0.00002358,-0.0000
 0735,0.00008679,-0.00000359,-0.00060264,0.00046893,-0.00064620,-0.0000
 5162,0.00003191,-0.00001607,-0.00000176,-0.00000148,0.00000211,0.00095
 667,0.00057230,-0.00048522,-0.00430699,-0.00318126,-0.00017856,0.00000
 786,0.00000431,-0.00000582,0.00000009,-0.00000191,0.00000210,-0.000911
 20,-0.00047785,0.00048246,0.05552980,-0.00005688,0.00010574,-0.0002768
 1,0.00106682,0.00029384,-0.00011536,-0.00001432,0.00001314,-0.00006023
 ,-0.00100763,-0.01313267,0.01708649,0.00000493,0.00001192,0.00000862,0
 .00354726,-0.13419426,0.11784054,-0.00000278,-0.00000730,0.00000189,0.
 00112950,-0.01061632,0.01407332,0.00021736,0.00009651,-0.00008635,-0.0
 0000361,-0.00006433,0.00000676,-0.00008465,0.00000833,-0.00010923,-0.0
 0054662,0.00059628,-0.00016714,-0.00003932,0.00002453,-0.00000763,0.00
 000136,0.00000380,0.00000139,0.00057518,0.00003229,-0.00012788,-0.0032
 7708,-0.00176208,-0.00026172,0.00000431,0.00000023,-0.00000574,-0.0000
 0190,-0.00000625,-0.00000082,-0.00046529,0.01137798,-0.01532486,-0.003
 55050,0.14781595,0.00021249,-0.00031828,0.00031178,-0.00024441,-0.0000
 4542,0.00004461,0.00005921,0.00007187,-0.00003861,0.00008398,-0.000265
 44,0.00010675,0.00002138,-0.00002661,0.00000771,-0.00442233,0.11888656
 ,-0.21248215,0.00000673,0.00001120,-0.00000471,0.00001421,-0.00125103,
 0.00115018,-0.00018961,-0.00008686,-0.00001037,-0.00002466,-0.00000730
 ,-0.00002780,-0.00000613,0.00010778,-0.00008427,0.00066332,-0.00011539
 ,0.00017380,0.00001855,-0.00000595,0.00002662,0.00000242,-0.00000112,-
 0.00001024,0.00047879,0.00010018,0.00070239,-0.00012265,-0.00027027,0.
 00161697,-0.00000582,-0.00000574,0.00000408,-0.00000211,0.00000081,-0.
 00000228,-0.00046855,0.01539092,-0.02078411,0.00481215,-0.13188079,0.2
 2717993,-0.00014259,0.00008914,-0.00014202,0.00003940,-0.00009776,-0.0
 0008742,0.00189880,0.00083719,0.00119531,0.00002126,0.00002378,-0.0000
 0444,-0.00208460,0.01692792,0.02435021,0.00000485,-0.00001168,0.000002
 00,-0.04612842,0.00449347,0.00691274,0.00000299,0.00000551,0.00000058,
 0.00004027,0.00000932,0.00003066,0.00012458,-0.00020634,-0.00018608,-0
 .00005399,-0.00003692,-0.00001757,-0.00000233,0.00000171,0.00000298,-0
 .00001668,-0.00009903,-0.00002566,-0.00051328,-0.00054434,-0.00066778,
 0.00000909,-0.00000471,-0.00000671,0.00000017,0.00000086,0.00000420,0.
 00103504,-0.00051907,-0.00038646,-0.00471056,0.00299923,-0.00016329,-0
 .00000256,-0.00000108,-0.00000187,-0.00000084,0.00000038,0.00000027,0.
 05046572,-0.00001631,0.00011152,0.00022698,0.00001357,-0.00000815,0.00
 005512,-0.00105066,0.00040539,0.00040445,-0.00000116,0.00002536,-0.000
 01117,0.00106135,-0.01173570,-0.01544769,0.00000364,-0.00001698,-0.000
 00218,0.00479538,-0.13452650,-0.12317103,0.00000501,0.00000900,-0.0000
 0095,0.00001291,-0.00006292,0.00000123,-0.00019974,0.00005456,0.000067
 10,0.00003116,0.00002338,0.00000243,-0.00000372,0.00000305,-0.00000070
 ,0.00007608,0.00001088,0.00009578,0.00051016,0.00057398,0.00008156,-0.
 00000336,-0.00000213,0.00000361,0.00000208,-0.00000675,0.00000292,-0.0
 0041100,-0.00014400,0.00014767,0.00342997,-0.00112198,0.00059966,0.000
 00082,0.00000440,0.00000256,-0.00000063,0.00000022,0.00000029,-0.00938
 475,0.14542666,0.00015777,0.00030758,0.00029080,0.00006376,-0.00006605
 ,-0.00003220,-0.00026139,0.00017078,0.00012281,0.00002002,0.00002956,0
 .00000447,-0.00007992,0.00071511,0.00095561,0.00000526,-0.00001518,-0.
 00000537,0.00745771,-0.12344587,-0.21904321,0.00000564,0.00000558,0.00
 000011,-0.00002503,0.00000874,-0.00002512,-0.00017747,0.00006022,-0.00
 001540,0.00001427,0.00000493,0.00002381,0.00000257,0.00000071,-0.00001
 065,0.00000442,-0.00011312,-0.00010613,0.00068073,0.00011105,0.0000837
 8,-0.00000559,0.00000448,0.00000330,-0.00000202,-0.00000113,-0.0000015
 6,0.00053733,-0.00005214,0.00064720,-0.00032643,0.00027508,0.00152886,
 0.00000141,0.00000292,0.00000651,0.00000013,-0.00000008,-0.00000302,-0
 .00839552,0.13617125,0.23484766,-0.00014245,0.00008934,0.00014165,0.00
 003942,-0.00009807,0.00008728,0.00189964,0.00083986,-0.00119308,0.0000
 2129,0.00002382,0.00000449,-0.00206566,0.01697447,-0.02432035,0.000004
 86,-0.00001170,-0.00000202,-0.04611623,0.00440237,-0.00675763,0.000003
 00,0.00000552,-0.00000056,0.00012426,-0.00020669,0.00018585,0.00004027
 ,0.00000935,-0.00003058,-0.00000232,0.00000172,-0.00000296,-0.00005401
 ,-0.00003696,0.00001743,-0.00051357,-0.00054536,0.00066658,-0.00001663
 ,-0.00009931,0.00002546,0.00000017,0.00000087,-0.00000420,0.00000909,-
 0.00000472,0.00000671,-0.00471104,0.00299955,0.00016411,0.00103461,-0.
 00051975,0.00038593,-0.00000084,0.00000038,-0.00000027,-0.00000256,-0.
 00000108,0.00000186,-0.00138553,-0.00060584,0.00047309,0.05045364,-0.0
 0001596,0.00011241,-0.00022746,0.00001372,-0.00000812,-0.00005507,-0.0
 0105179,0.00040687,-0.00040453,-0.00000114,0.00002537,0.00001122,0.001
 04863,-0.01176227,0.01542466,0.00000364,-0.00001701,0.00000215,0.00470
 630,-0.13500456,0.12333631,0.00000502,0.00000901,0.00000097,-0.0002000
 6,0.00005483,-0.00006710,0.00001290,-0.00006291,-0.00000130,-0.0000037
 3,0.00000305,0.00000072,0.00003119,0.00002339,-0.00000241,0.00051167,0
 .00057450,-0.00008056,0.00007623,0.00001081,-0.00009556,0.00000208,-0.
 00000674,-0.00000294,-0.00000337,-0.00000212,-0.00000362,0.00342909,-0
 .00112055,-0.00060223,-0.00040980,-0.00014412,-0.00014946,-0.00000063,
 0.00000022,-0.00000028,0.00000083,0.00000441,-0.00000256,-0.00059145,0
 .01191264,-0.01582090,-0.00928537,0.14595281,-0.00015808,-0.00030793,0
 .00028982,-0.00006368,0.00006600,-0.00003212,0.00026141,-0.00016977,0.
 00012155,-0.00002000,-0.00002950,0.00000441,0.00007828,-0.00072440,0.0
 0096288,-0.00000525,0.00001515,-0.00000534,-0.00730227,0.12360949,-0.2
 1857430,-0.00000563,-0.00000555,0.00000009,0.00017727,-0.00006025,-0.0
 0001536,0.00002511,-0.00000881,-0.00002515,-0.00000258,-0.00000068,-0.
 00001065,-0.00001427,-0.00000496,0.00002379,-0.00068027,-0.00011062,0.
 00008359,-0.00000432,0.00011326,-0.00010623,0.00000202,0.00000112,-0.0
 0000157,0.00000558,-0.00000449,0.00000329,0.00032768,-0.00027704,0.001
 52766,-0.00053786,0.00005042,0.00064625,-0.00000013,0.00000008,-0.0000
 0302,-0.00000141,-0.00000293,0.00000650,-0.00045862,0.01588196,-0.0198
 7736,0.00822223,-0.13634983,0.23433135,-0.00081858,-0.00179828,-0.0000
 0212,-0.00043170,0.00065120,0.00000052,-0.00360869,0.00558897,0.000003
 28,-0.00013594,-0.00028894,-0.00000036,-0.02002401,-0.01796075,-0.0000
 2434,-0.00005482,0.00012251,0.00000011,-0.21776844,-0.12635038,-0.0001
 9454,-0.00003210,-0.00005394,-0.00000006,-0.00000673,0.00004297,-0.000
 10331,-0.00000681,0.00004279,0.00010341,0.00001920,-0.00001107,-0.0000
 2938,0.00001918,-0.00001113,0.00002936,0.00028284,0.00009733,0.0001250
 9,0.00028263,0.00009723,-0.00012493,0.00000463,0.00000935,0.00001552,0
 .00000464,0.00000939,-0.00001549,0.00054666,0.00002988,-0.00067236,0.0
 0054637,0.00002833,0.00067300,0.00000220,-0.00000536,-0.00000563,0.000
 00219,-0.00000537,0.00000562,0.00139519,0.00172902,-0.00015284,0.00137
 657,0.00171598,0.00015686,0.23843613,0.00090908,0.00089257,0.00000051,
 0.00027455,-0.00027490,-0.00000019,0.00247562,-0.00231582,-0.00000112,
 0.00006919,0.00009334,0.00000012,0.01661219,0.01303527,0.00002029,0.00
 002783,-0.00003170,-0.00000001,-0.12743670,-0.14018968,-0.00014438,0.0
 0000811,0.00000931,0.,-0.00007527,0.00003656,0.00003022,-0.00007508,0.
 00003651,-0.00003018,-0.00000673,-0.00000432,0.00001780,-0.00000671,-0
 .00000429,-0.00001782,0.00016566,0.00002277,-0.00026255,0.00016501,0.0
 0002175,0.00026226,-0.00000219,0.00000123,-0.00000329,-0.00000219,0.00
 000122,0.00000329,-0.00079295,0.00066177,0.00017077,-0.00079319,0.0006
 6222,-0.00016995,-0.00000034,0.00000030,0.00000304,-0.00000033,0.00000
 030,-0.00000304,-0.01388880,-0.01093211,0.00164642,-0.01392985,-0.0109
 5812,-0.00168066,0.13629960,0.14923824,0.00000036,-0.00000036,0.000597
 51,0.00000012,-0.00000003,-0.00000464,0.00000135,-0.00000020,0.0002347
 4,0.00000002,-0.00000003,0.00000867,0.00000871,0.00000633,-0.00142455,
 0.00000001,0.00000003,-0.00001055,-0.00019596,-0.00014420,-0.04640927,
 0.,-0.00000001,0.00000354,0.00007562,-0.00004153,-0.00001938,-0.000075
 75,0.00004165,-0.00001935,0.00000125,-0.00000383,0.00000418,-0.0000012
 5,0.00000381,0.00000418,-0.00030077,-0.00032189,0.00022132,0.00030113,
 0.00032160,0.00022236,0.00000077,-0.00000169,-0.00000266,-0.00000077,0
 .00000171,-0.00000266,-0.00027937,-0.00026236,-0.00005869,0.00027853,0
 .00026364,-0.00005737,0.,-0.00000089,0.00000032,0.,0.00000089,0.000000
 32,-0.02195449,-0.01511247,0.00060415,0.02192794,0.01509140,0.00064896
 ,0.00021258,0.00015845,0.04546045,-0.00043169,0.00065120,0.00000049,-0
 .00081853,-0.00179831,-0.00000240,-0.00013595,-0.00028894,-0.00000031,
 -0.00360865,0.00558888,0.00000451,-0.00005483,0.00012251,0.00000008,-0
 .02002407,-0.01796109,-0.00002276,-0.00003210,-0.00005394,-0.00000006,
 -0.21776230,-0.12635076,-0.00016759,0.00001918,-0.00001113,0.00002937,
 0.00001921,-0.00001107,-0.00002938,-0.00000677,0.00004274,0.00010340,-
 0.00000678,0.00004301,-0.00010332,0.00000464,0.00000938,-0.00001549,0.
 00000464,0.00000935,0.00001551,0.00028268,0.00009730,-0.00012489,0.000
 28279,0.00009728,0.00012514,0.00000220,-0.00000537,0.00000562,0.000002
 20,-0.00000536,-0.00000563,0.00054603,0.00002841,0.00067287,0.00054703
 ,0.00002978,-0.00067250,0.00000407,0.00000830,0.00000538,0.00000408,0.
 00000831,-0.00000536,-0.00003875,0.00000406,0.,0.23842954,0.00027453,-
 0.00027489,-0.00000016,0.00090904,0.00089258,0.00000068,0.00006919,0.0
 0009334,0.00000010,0.00247561,-0.00231569,-0.00000179,0.00002783,-0.00
 003170,0.,0.01661160,0.01303510,0.00001885,0.00000811,0.00000931,0.,-0
 .12743692,-0.14019341,-0.00012445,-0.00000671,-0.00000429,-0.00001782,
 -0.00000673,-0.00000432,0.00001780,-0.00007509,0.00003652,-0.00003017,
 -0.00007525,0.00003653,0.00003023,-0.00000219,0.00000122,0.00000329,-0
 .00000219,0.00000123,-0.00000329,0.00016492,0.00002167,0.00026225,0.00
 016574,0.00002286,-0.00026254,-0.00000033,0.00000030,-0.00000304,-0.00
 000034,0.00000030,0.00000303,-0.00079334,0.00066166,-0.00016997,-0.000
 79280,0.00066233,0.00017073,-0.00000028,0.00000064,0.00000047,-0.00000
 028,0.00000064,-0.00000046,0.00000406,-0.00000371,0.,0.13629998,0.1492
 4229,0.00000011,-0.00000002,-0.00000464,0.00000035,-0.00000041,0.00059
 749,0.,-0.00000002,0.00000867,0.00000064,-0.00000044,0.00023471,0.,0.0
 0000002,-0.00001055,0.00000911,0.00000787,-0.00142455,0.,-0.00000001,0
 .00000354,-0.00016832,-0.00012395,-0.04640965,-0.00000125,0.00000381,0
 .00000418,0.00000125,-0.00000383,0.00000418,-0.00007575,0.00004167,-0.
 00001934,0.00007561,-0.00004151,-0.00001939,-0.00000077,0.00000171,-0.
 00000266,0.00000077,-0.00000169,-0.00000265,0.00030117,0.00032155,0.00
 022253,-0.00030072,-0.00032195,0.00022113,0.,0.00000089,0.00000032,0.,
 -0.00000089,0.00000032,0.00027834,0.00026373,-0.00005779,-0.00027957,-
 0.00026228,-0.00005827,-0.00000012,-0.00000046,-0.00000032,0.00000012,
 0.00000047,-0.00000032,0.,0.,-0.00000094,0.00018379,0.00013578,0.04546
 070,0.00003943,-0.00009784,-0.00008741,-0.00014249,0.00008932,-0.00014
 181,0.00002128,0.00002381,-0.00000444,0.00189897,0.00083733,0.00119575
 ,0.00000485,-0.00001169,0.00000200,-0.00208330,0.01692861,0.02435039,0
 .00000300,0.00000552,0.00000058,-0.04612610,0.00448010,0.00689302,-0.0
 0000232,0.00000171,0.00000297,-0.00005400,-0.00003693,-0.00001756,0.00
 012454,-0.00020634,-0.00018614,0.00004030,0.00000928,0.00003066,0.0000
 0017,0.00000086,0.00000420,0.00000910,-0.00000471,-0.00000671,-0.00051
 348,-0.00054417,-0.00066804,-0.00001661,-0.00009919,-0.00002556,-0.000
 00084,0.00000038,0.00000027,-0.00000256,-0.00000108,-0.00000187,-0.004
 71081,0.00299965,-0.00016299,0.00103456,-0.00051899,-0.00038663,0.0000
 0048,-0.00000151,-0.00000210,-0.00000054,-0.00000077,0.00000119,0.0000
 0407,-0.00000029,-0.00000012,0.00139280,-0.01388953,-0.02195333,0.0504
 6500,0.00001356,-0.00000812,0.00005511,-0.00001640,0.00011141,0.000227
 13,-0.00000117,0.00002534,-0.00001118,-0.00105139,0.00040579,0.0004042
 8,0.00000364,-0.00001698,-0.00000217,0.00106007,-0.01173444,-0.0154473
 6,0.00000501,0.00000900,-0.00000095,0.00478270,-0.13454114,-0.12317700
 ,-0.00000373,0.00000305,-0.00000070,0.00003116,0.00002338,0.00000243,-
 0.00019977,0.00005457,0.00006709,0.00001294,-0.00006292,0.00000122,0.0
 0000209,-0.00000675,0.00000293,-0.00000336,-0.00000213,0.00000361,0.00
 051035,0.00057409,0.00008179,0.00007618,0.00001084,0.00009584,-0.00000
 063,0.00000022,0.00000029,0.00000082,0.00000440,0.00000255,0.00342929,
 -0.00112208,0.00059968,-0.00041090,-0.00014429,0.00014768,-0.00000151,
 -0.00000096,0.00000084,-0.00000077,-0.00000349,0.00000124,0.00000830,0
 .00000064,-0.00000046,0.00172747,-0.01093298,-0.01511224,-0.00936989,0
 .14544086,0.00006375,-0.00006603,-0.00003217,0.00015775,0.00030761,0.0
 0029081,0.00002001,0.00002955,0.00000446,-0.00026201,0.00017091,0.0001
 2329,0.00000526,-0.00001518,-0.00000537,-0.00007857,0.00071292,0.00095
 288,0.00000564,0.00000557,0.00000010,0.00743813,-0.12345050,-0.2190311
 1,0.00000258,0.00000071,-0.00001065,0.00001427,0.00000493,0.00002380,-
 0.00017752,0.00006022,-0.00001537,-0.00002505,0.00000876,-0.00002512,-
 0.00000202,-0.00000113,-0.00000156,-0.00000558,0.00000448,0.00000330,0
 .00068078,0.00011111,0.00008390,0.00000455,-0.00011311,-0.00010630,0.0
 0000013,-0.00000008,-0.00000302,0.00000141,0.00000293,0.00000651,-0.00
 032578,0.00027429,0.00152895,0.00053736,-0.00005225,0.00064661,-0.0000
 0210,0.00000084,0.00000164,-0.00000120,-0.00000125,-0.00000036,0.00000
 538,0.00000047,-0.00000031,-0.00015310,0.00164887,0.00060771,-0.008375
 27,0.13617799,0.23483481,0.00003939,-0.00009799,0.00008729,-0.00014257
 ,0.00008916,0.00014189,0.00002127,0.00002380,0.00000449,0.00189951,0.0
 0083969,-0.00119259,0.00000486,-0.00001169,-0.00000202,-0.00206756,0.0
 1697430,-0.02432080,0.00000300,0.00000552,-0.00000056,-0.04611776,0.00
 441768,-0.00678042,-0.00005400,-0.00003695,0.00001743,-0.00000232,0.00
 000172,-0.00000297,0.00004025,0.00000939,-0.00003057,0.00012433,-0.000
 20668,0.00018578,0.00000909,-0.00000472,0.00000671,0.00000017,0.000000
 87,-0.00000420,-0.00001670,-0.00009915,0.00002555,-0.00051331,-0.00054
 560,0.00066635,-0.00000256,-0.00000109,0.00000187,-0.00000084,0.000000
 38,-0.00000027,0.00103509,-0.00051981,0.00038578,-0.00471103,0.0029991
 4,0.00016442,-0.00000054,-0.00000077,-0.00000120,0.00000048,-0.0000015
 1,0.00000209,0.00000407,-0.00000028,0.00000012,0.00137935,-0.01392863,
 0.02192856,-0.00138551,-0.00060404,0.00047119,0.05045383,0.00001373,-0
 .00000816,-0.00005507,-0.00001590,0.00011252,-0.00022728,-0.00000113,0
 .00002539,0.00001121,-0.00105093,0.00040649,-0.00040473,0.00000365,-0.
 00001701,0.00000216,0.00105028,-0.01176295,0.01542431,0.00000502,0.000
 00901,0.00000097,0.00472095,-0.13499186,0.12333415,0.00003119,0.000023
 39,-0.00000241,-0.00000372,0.00000305,0.00000073,0.00001288,-0.0000629
 0,-0.00000131,-0.00020002,0.00005480,-0.00006709,-0.00000337,-0.000002
 12,-0.00000362,0.00000208,-0.00000674,-0.00000293,0.00007612,0.0000108
 4,-0.00009551,0.00051147,0.00057437,-0.00008028,0.00000083,0.00000441,
 -0.00000256,-0.00000063,0.00000022,-0.00000028,-0.00040984,-0.00014386
 ,-0.00014946,0.00342966,-0.00112030,-0.00060220,-0.00000077,-0.0000034
 9,-0.00000125,-0.00000151,-0.00000096,-0.00000085,0.00000831,0.0000006
 4,0.00000047,0.00171800,-0.01095754,0.01509221,-0.00059363,0.01191271,
 -0.01582264,-0.00930272,0.14594004,-0.00006367,0.00006602,-0.00003215,
 -0.00015808,-0.00030788,0.00028979,-0.00002001,-0.00002950,0.00000442,
 0.00026076,-0.00016964,0.00012107,-0.00000525,0.00001515,-0.00000535,0
 .00007957,-0.00072658,0.00096561,-0.00000563,-0.00000556,0.00000009,-0
 .00732487,0.12360853,-0.21859115,-0.00001427,-0.00000496,0.00002380,-0
 .00000257,-0.00000068,-0.00001065,0.00002508,-0.00000879,-0.00002514,0
 .00017721,-0.00006023,-0.00001538,0.00000558,-0.00000449,0.00000329,0.
 00000202,0.00000112,-0.00000157,-0.00000421,0.00011327,-0.00010606,-0.
 00068023,-0.00011057,0.00008344,-0.00000141,-0.00000293,0.00000650,-0.
 00000013,0.00000008,-0.00000302,-0.00053782,0.00005029,0.00064684,0.00
 032834,-0.00027780,0.00152758,0.00000119,0.00000124,-0.00000036,0.0000
 0209,-0.00000085,0.00000164,-0.00000536,-0.00000046,-0.00000032,0.0001
 5664,-0.00167840,0.00064557,-0.00046107,0.01588034,-0.01987742,0.00824
 608,-0.13634672,0.23434893\\-0.00000351,-0.00000329,0.00000027,0.00000
 285,0.00000013,0.00000036,-0.00000305,-0.00000100,-0.00000042,-0.00000
 407,0.00000266,-0.00000068,0.00000242,0.00000078,-0.00000118,0.0000027
 6,0.00000051,-0.00000099,0.00000666,-0.00000102,0.00000026,-0.00000434
 ,-0.00000003,0.00000002,-0.00000009,-0.00000025,-0.00000042,0.00000067
 ,-0.00000003,0.00000003,-0.00000055,0.00000042,-0.00000008,-0.00000110
 ,0.00000088,-0.00000005,-0.00000160,-0.00000145,-0.00000020,-0.0000010
 6,-0.00000117,0.00000031,0.00000215,0.00000109,-0.00000021,0.00000188,
 0.00000075,0.00000067,0.00000180,-0.00000007,0.00000119,0.00000123,-0.
 00000157,0.00000029,-0.00000177,0.00000008,0.00000111,-0.00000109,0.00
 000076,-0.00000009,-0.00000223,-0.00000110,0.00000130,-0.00000185,0.00
 000019,-0.00000092,0.00000020,-0.00000154,-0.00000062,0.00000062,0.000
 00213,-0.00000043,0.00000141,0.00000066,0.00000004,0.00000167,0.000001
 49,0.00000044\\\@


 Democracy is the recurrent suspicion that more than half of the people
 are right more than half of the time.
 -- E. B. White
 Job cpu time:       0 days  2 hours 19 minutes 14.3 seconds.
 Elapsed time:       0 days  0 hours  8 minutes 44.4 seconds.
 File lengths (MBytes):  RWF=    195 Int=      0 D2E=      0 Chk=      9 Scr=      1
 Normal termination of Gaussian 16 at Fri Oct 10 00:37:39 2025.
