 Entering Gaussian System, Link 0=g16
 Input=OXYL0068.gjf
 Output=OXYL0068.log
 Initial command:
 /usr/local/g16/l1.exe "/dados_01/scratch/Gau-2597309.inp" -scrdir="/dados_01/scratch/"
 Entering Link 1 = /usr/local/g16/l1.exe PID=   2597310.
  
 Copyright (c) 1988-2017, Gaussian, Inc.  All Rights Reserved.
  
 This is part of the Gaussian(R) 16 program.  It is based on
 the Gaussian(R) 09 system (copyright 2009, Gaussian, Inc.),
 the Gaussian(R) 03 system (copyright 2003, Gaussian, Inc.),
 the Gaussian(R) 98 system (copyright 1998, Gaussian, Inc.),
 the Gaussian(R) 94 system (copyright 1995, Gaussian, Inc.),
 the Gaussian 92(TM) system (copyright 1992, Gaussian, Inc.),
 the Gaussian 90(TM) system (copyright 1990, Gaussian, Inc.),
 the Gaussian 88(TM) system (copyright 1988, Gaussian, Inc.),
 the Gaussian 86(TM) system (copyright 1986, Carnegie Mellon
 University), and the Gaussian 82(TM) system (copyright 1983,
 Carnegie Mellon University). Gaussian is a federally registered
 trademark of Gaussian, Inc.
  
 This software contains proprietary and confidential information,
 including trade secrets, belonging to Gaussian, Inc.
  
 This software is provided under written license and may be
 used, copied, transmitted, or stored only in accord with that
 written license.
  
 The following legend is applicable only to US Government
 contracts under FAR:
  
                    RESTRICTED RIGHTS LEGEND
  
 Use, reproduction and disclosure by the US Government is
 subject to restrictions as set forth in subparagraphs (a)
 and (c) of the Commercial Computer Software - Restricted
 Rights clause in FAR 52.227-19.
  
 Gaussian, Inc.
 340 Quinnipiac St., Bldg. 40, Wallingford CT 06492
  
  
 ---------------------------------------------------------------
 Warning -- This program may not be used in any manner that
 competes with the business of Gaussian, Inc. or will provide
 assistance to any competitor of Gaussian, Inc.  The licensee
 of this program is prohibited from giving any competitor of
 Gaussian, Inc. access to this program.  By using this program,
 the user acknowledges that Gaussian, Inc. is engaged in the
 business of creating and licensing software in the field of
 computational chemistry and represents and warrants to the
 licensee that it is not a competitor of Gaussian, Inc. and that
 it will not use this program in any manner prohibited above.
 ---------------------------------------------------------------
  

 Cite this work as:
 Gaussian 16, Revision B.01,
 M. J. Frisch, G. W. Trucks, H. B. Schlegel, G. E. Scuseria, 
 M. A. Robb, J. R. Cheeseman, G. Scalmani, V. Barone, 
 G. A. Petersson, H. Nakatsuji, X. Li, M. Caricato, A. V. Marenich, 
 J. Bloino, B. G. Janesko, R. Gomperts, B. Mennucci, H. P. Hratchian, 
 J. V. Ortiz, A. F. Izmaylov, J. L. Sonnenberg, D. Williams-Young, 
 F. Ding, F. Lipparini, F. Egidi, J. Goings, B. Peng, A. Petrone, 
 T. Henderson, D. Ranasinghe, V. G. Zakrzewski, J. Gao, N. Rega, 
 G. Zheng, W. Liang, M. Hada, M. Ehara, K. Toyota, R. Fukuda, 
 J. Hasegawa, M. Ishida, T. Nakajima, Y. Honda, O. Kitao, H. Nakai, 
 T. Vreven, K. Throssell, J. A. Montgomery, Jr., J. E. Peralta, 
 F. Ogliaro, M. J. Bearpark, J. J. Heyd, E. N. Brothers, K. N. Kudin, 
 V. N. Staroverov, T. A. Keith, R. Kobayashi, J. Normand, 
 K. Raghavachari, A. P. Rendell, J. C. Burant, S. S. Iyengar, 
 J. Tomasi, M. Cossi, J. M. Millam, M. Klene, C. Adamo, R. Cammi, 
 J. W. Ochterski, R. L. Martin, K. Morokuma, O. Farkas, 
 J. B. Foresman, and D. J. Fox, Gaussian, Inc., Wallingford CT, 2016.
 
 ******************************************
 Gaussian 16:  ES64L-G16RevB.01 20-Dec-2017
                10-Oct-2025 
 ******************************************
 %nprocs=16
 Will use up to   16 processors via shared memory.
 %mem=40GB
 %chk=OXY0068.chk
 ----------------------------------------------------------------------
 # opt freq=noraman M08HX/6-311++G** scf=xqc Empiricaldispersion=pfd In
 t(Grid=ultraFine)
 ----------------------------------------------------------------------
 1/18=20,19=15,26=4,38=1/1,3;
 2/9=110,12=2,17=6,18=5,40=1/2;
 3/5=4,6=6,7=1111,11=2,25=1,30=1,71=1,74=-74,75=-5,124=11/1,2,3;
 4//1;
 5/5=2,8=3,13=1,38=5/2,8;
 6/7=2,8=2,9=2,10=2,28=1/1;
 7//1,2,3,16;
 1/18=20,19=15,26=4/3(2);
 2/9=110/2;
 99//99;
 2/9=110/2;
 3/5=4,6=6,7=1111,11=2,25=1,30=1,71=1,74=-74,75=-5,124=11/1,2,3;
 4/5=5,16=3,69=1/1;
 5/5=2,8=3,13=1,38=5/2,8;
 7//1,2,3,16;
 1/18=20,19=15,26=4/3(-5);
 2/9=110/2;
 6/7=2,8=2,9=2,10=2,19=2,28=1/1;
 99/9=1/99;
 -------
 OXY0068
 -------
 Symbolic Z-matrix:
 Charge =  0 Multiplicity = 1
 O                     2.3588   -0.8842    0.0004 
 C                    -0.0368   -0.764    -0.0004 
 C                    -1.1975    0.0097   -0.0003 
 C                     1.2136   -0.1456   -0.0002 
 C                    -1.1078    1.4017    0. 
 C                    -0.1273   -2.2566    0.0001 
 C                    -2.5483   -0.6276    0.0004 
 C                     1.303     1.2465    0. 
 C                     0.1424    2.0201    0.0002 
 H                    -2.0018    2.0197    0.0002 
 H                    -0.6613   -2.6073   -0.8894 
 H                     0.8512   -2.7464   -0.0067 
 H                    -0.6499   -2.6069    0.8964 
 H                    -2.6859   -1.2426   -0.8948 
 H                    -2.6831   -1.2469    0.8932 
 H                    -3.3493    0.12      0.0036 
 H                     2.2703    1.7418    0.0004 
 H                     0.2122    3.104     0.0005 
 H                     3.124    -0.2839    0.0005 
 

 GradGradGradGradGradGradGradGradGradGradGradGradGradGradGradGradGradGrad
 Berny optimization.
 Initialization pass.
                           ----------------------------
                           !    Initial Parameters    !
                           ! (Angstroms and Degrees)  !
 --------------------------                            --------------------------
 ! Name  Definition              Value          Derivative Info.                !
 --------------------------------------------------------------------------------
 ! R1    R(1,4)                  1.3627         estimate D2E/DX2                !
 ! R2    R(1,19)                 0.9726         estimate D2E/DX2                !
 ! R3    R(2,3)                  1.3949         estimate D2E/DX2                !
 ! R4    R(2,4)                  1.395          estimate D2E/DX2                !
 ! R5    R(2,6)                  1.4953         estimate D2E/DX2                !
 ! R6    R(3,5)                  1.3949         estimate D2E/DX2                !
 ! R7    R(3,7)                  1.4936         estimate D2E/DX2                !
 ! R8    R(4,8)                  1.395          estimate D2E/DX2                !
 ! R9    R(5,9)                  1.3948         estimate D2E/DX2                !
 ! R10   R(5,10)                 1.0868         estimate D2E/DX2                !
 ! R11   R(6,11)                 1.0952         estimate D2E/DX2                !
 ! R12   R(6,12)                 1.0943         estimate D2E/DX2                !
 ! R13   R(6,13)                 1.0951         estimate D2E/DX2                !
 ! R14   R(7,14)                 1.0948         estimate D2E/DX2                !
 ! R15   R(7,15)                 1.0949         estimate D2E/DX2                !
 ! R16   R(7,16)                 1.0957         estimate D2E/DX2                !
 ! R17   R(8,9)                  1.3948         estimate D2E/DX2                !
 ! R18   R(8,17)                 1.0867         estimate D2E/DX2                !
 ! R19   R(9,18)                 1.0861         estimate D2E/DX2                !
 ! A1    A(4,1,19)             109.0657         estimate D2E/DX2                !
 ! A2    A(3,2,4)              119.9981         estimate D2E/DX2                !
 ! A3    A(3,2,6)              120.2169         estimate D2E/DX2                !
 ! A4    A(4,2,6)              119.785          estimate D2E/DX2                !
 ! A5    A(2,3,5)              119.9996         estimate D2E/DX2                !
 ! A6    A(2,3,7)              121.0557         estimate D2E/DX2                !
 ! A7    A(5,3,7)              118.9447         estimate D2E/DX2                !
 ! A8    A(1,4,2)              120.8647         estimate D2E/DX2                !
 ! A9    A(1,4,8)              119.1456         estimate D2E/DX2                !
 ! A10   A(2,4,8)              119.9897         estimate D2E/DX2                !
 ! A11   A(3,5,9)              120.0059         estimate D2E/DX2                !
 ! A12   A(3,5,10)             120.9681         estimate D2E/DX2                !
 ! A13   A(9,5,10)             119.026          estimate D2E/DX2                !
 ! A14   A(2,6,11)             110.4189         estimate D2E/DX2                !
 ! A15   A(2,6,12)             113.1205         estimate D2E/DX2                !
 ! A16   A(2,6,13)             110.3931         estimate D2E/DX2                !
 ! A17   A(11,6,12)            106.7164         estimate D2E/DX2                !
 ! A18   A(11,6,13)            109.2477         estimate D2E/DX2                !
 ! A19   A(12,6,13)            106.7769         estimate D2E/DX2                !
 ! A20   A(3,7,14)             110.67           estimate D2E/DX2                !
 ! A21   A(3,7,15)             110.6755         estimate D2E/DX2                !
 ! A22   A(3,7,16)             111.7172         estimate D2E/DX2                !
 ! A23   A(14,7,15)            109.4844         estimate D2E/DX2                !
 ! A24   A(14,7,16)            107.0856         estimate D2E/DX2                !
 ! A25   A(15,7,16)            107.0705         estimate D2E/DX2                !
 ! A26   A(4,8,9)              120.011          estimate D2E/DX2                !
 ! A27   A(4,8,17)             120.7889         estimate D2E/DX2                !
 ! A28   A(9,8,17)             119.2            estimate D2E/DX2                !
 ! A29   A(5,9,8)              119.9956         estimate D2E/DX2                !
 ! A30   A(5,9,18)             120.0035         estimate D2E/DX2                !
 ! A31   A(8,9,18)             120.0009         estimate D2E/DX2                !
 ! D1    D(19,1,4,2)          -179.997          estimate D2E/DX2                !
 ! D2    D(19,1,4,8)            -0.026          estimate D2E/DX2                !
 ! D3    D(4,2,3,5)              0.0            estimate D2E/DX2                !
 ! D4    D(4,2,3,7)           -179.9593         estimate D2E/DX2                !
 ! D5    D(6,2,3,5)            179.9636         estimate D2E/DX2                !
 ! D6    D(6,2,3,7)              0.0043         estimate D2E/DX2                !
 ! D7    D(3,2,4,1)            179.966          estimate D2E/DX2                !
 ! D8    D(3,2,4,8)             -0.0047         estimate D2E/DX2                !
 ! D9    D(6,2,4,1)              0.0023         estimate D2E/DX2                !
 ! D10   D(6,2,4,8)           -179.9685         estimate D2E/DX2                !
 ! D11   D(3,2,6,11)            60.1044         estimate D2E/DX2                !
 ! D12   D(3,2,6,12)           179.6206         estimate D2E/DX2                !
 ! D13   D(3,2,6,13)           -60.8042         estimate D2E/DX2                !
 ! D14   D(4,2,6,11)          -119.9319         estimate D2E/DX2                !
 ! D15   D(4,2,6,12)            -0.4158         estimate D2E/DX2                !
 ! D16   D(4,2,6,13)           119.1595         estimate D2E/DX2                !
 ! D17   D(2,3,5,9)              0.0            estimate D2E/DX2                !
 ! D18   D(2,3,5,10)          -179.9927         estimate D2E/DX2                !
 ! D19   D(7,3,5,9)            179.9601         estimate D2E/DX2                !
 ! D20   D(7,3,5,10)            -0.0326         estimate D2E/DX2                !
 ! D21   D(2,3,7,14)           -60.9539         estimate D2E/DX2                !
 ! D22   D(2,3,7,15)            60.6076         estimate D2E/DX2                !
 ! D23   D(2,3,7,16)           179.8192         estimate D2E/DX2                !
 ! D24   D(5,3,7,14)           119.0864         estimate D2E/DX2                !
 ! D25   D(5,3,7,15)          -119.3521         estimate D2E/DX2                !
 ! D26   D(5,3,7,16)            -0.1405         estimate D2E/DX2                !
 ! D27   D(1,4,8,9)           -179.9618         estimate D2E/DX2                !
 ! D28   D(1,4,8,17)             0.0138         estimate D2E/DX2                !
 ! D29   D(2,4,8,9)              0.0095         estimate D2E/DX2                !
 ! D30   D(2,4,8,17)           179.9851         estimate D2E/DX2                !
 ! D31   D(3,5,9,8)              0.0047         estimate D2E/DX2                !
 ! D32   D(3,5,9,18)          -179.996          estimate D2E/DX2                !
 ! D33   D(10,5,9,8)           179.9976         estimate D2E/DX2                !
 ! D34   D(10,5,9,18)           -0.0031         estimate D2E/DX2                !
 ! D35   D(4,8,9,5)             -0.0095         estimate D2E/DX2                !
 ! D36   D(4,8,9,18)           179.9912         estimate D2E/DX2                !
 ! D37   D(17,8,9,5)          -179.9855         estimate D2E/DX2                !
 ! D38   D(17,8,9,18)            0.0152         estimate D2E/DX2                !
 --------------------------------------------------------------------------------
 Trust Radius=3.00D-01 FncErr=1.00D-07 GrdErr=1.00D-06 EigMax=2.50D+02 EigMin=1.00D-04
 Number of steps in this run=     98 maximum allowed number of steps=    114.
 GradGradGradGradGradGradGradGradGradGradGradGradGradGradGradGradGradGrad

                          Input orientation:                          
 ---------------------------------------------------------------------
 Center     Atomic      Atomic             Coordinates (Angstroms)
 Number     Number       Type             X           Y           Z
 ---------------------------------------------------------------------
      1          8           0        2.358800   -0.884200    0.000400
      2          6           0       -0.036800   -0.764000   -0.000400
      3          6           0       -1.197500    0.009700   -0.000300
      4          6           0        1.213600   -0.145600   -0.000200
      5          6           0       -1.107800    1.401700    0.000000
      6          6           0       -0.127300   -2.256600    0.000100
      7          6           0       -2.548300   -0.627600    0.000400
      8          6           0        1.303000    1.246500    0.000000
      9          6           0        0.142400    2.020100    0.000200
     10          1           0       -2.001800    2.019700    0.000200
     11          1           0       -0.661300   -2.607300   -0.889400
     12          1           0        0.851200   -2.746400   -0.006700
     13          1           0       -0.649900   -2.606900    0.896400
     14          1           0       -2.685900   -1.242600   -0.894800
     15          1           0       -2.683100   -1.246900    0.893200
     16          1           0       -3.349300    0.120000    0.003600
     17          1           0        2.270300    1.741800    0.000400
     18          1           0        0.212200    3.104000    0.000500
     19          1           0        3.124000   -0.283900    0.000500
 ---------------------------------------------------------------------
                    Distance matrix (angstroms):
                    1          2          3          4          5
     1  O    0.000000
     2  C    2.398614   0.000000
     3  C    3.666923   1.394932   0.000000
     4  C    1.362723   1.394962   2.416096   0.000000
     5  C    4.152428   2.416050   1.394887   2.789809   0.000000
     6  C    2.839749   1.495341   2.506281   2.500867   3.787419
     7  C    4.913804   2.515201   1.493590   3.792653   2.488594
     8  C    2.377940   2.416025   2.789655   1.394968   2.415790
     9  C    3.653408   2.789861   2.415997   2.416139   1.394783
    10  H    5.239033   3.407376   2.164948   3.876509   1.086812
    11  H    3.589125   2.139644   2.815439   3.219611   4.130675
    12  H    2.395975   2.172209   3.434137   2.625935   4.587424
    13  H    3.580892   2.139257   2.819669   3.214735   4.133047
    14  H    5.136033   2.836678   2.140962   4.148472   3.206772
    15  H    5.133167   2.834540   2.141120   4.146721   3.208498
    16  H    5.795760   3.428429   2.154629   4.570625   2.582071
    17  H    2.627491   3.406133   3.876314   2.163075   3.395177
    18  H    4.529198   3.876006   3.400286   3.400397   2.154118
    19  H    0.972569   3.197054   4.331462   1.915400   4.555149
                    6          7          8          9         10
     6  C    0.000000
     7  C    2.918027   0.000000
     8  C    3.783843   4.283079   0.000000
     9  C    4.285196   3.774941   1.394794   0.000000
    10  H    4.669100   2.703120   3.394045   2.144200   0.000000
    11  H    1.095151   2.876061   4.416026   4.780183   4.898720
    12  H    1.094263   4.005741   4.018385   4.818918   5.554761
    13  H    1.095068   2.885198   4.412034   4.779126   4.902676
    14  H    2.894041   1.094779   4.786189   4.409707   3.451321
    15  H    2.889504   1.094895   4.785796   4.410690   3.454315
    16  H    4.003689   1.095681   4.786743   3.975218   2.329083
    17  H    4.662155   5.369633   1.086734   2.146022   4.281129
    18  H    5.371340   4.641681   2.154101   1.086145   2.465259
    19  H    3.802959   5.682703   2.378690   3.768070   5.619644
                   11         12         13         14         15
    11  H    0.000000
    12  H    1.756748   0.000000
    13  H    1.785836   1.757370   0.000000
    14  H    2.441606   3.944770   3.035623   0.000000
    15  H    3.019276   3.943298   2.446122   1.788007   0.000000
    16  H    3.932043   5.085327   3.939522   1.761789   1.761711
    17  H    5.319840   4.707211   5.314280   5.854225   5.853682
    18  H    5.845842   5.885198   5.844676   5.300328   5.301887
    19  H    4.529747   3.351056   4.521204   5.956140   5.953713
                   16         17         18         19
    16  H    0.000000
    17  H    5.848944   0.000000
    18  H    4.646348   2.468069   0.000000
    19  H    6.485889   2.198241   4.467264   0.000000
 Stoichiometry    C8H10O
 Framework group  C1[X(C8H10O)]
 Deg. of freedom    51
 Full point group                 C1      NOp   1
 Largest Abelian subgroup         C1      NOp   1
 Largest concise Abelian subgroup C1      NOp   1
                         Standard orientation:                         
 ---------------------------------------------------------------------
 Center     Atomic      Atomic             Coordinates (Angstroms)
 Number     Number       Type             X           Y           Z
 ---------------------------------------------------------------------
      1          8           0        2.302653   -0.981842    0.000311
      2          6           0       -0.076449   -0.676522   -0.000489
      3          6           0       -1.173761    0.184723   -0.000389
      4          6           0        1.218077   -0.156792   -0.000289
      5          6           0       -0.976553    1.565599   -0.000089
      6          6           0       -0.282243   -2.157635    0.000011
      7          6           0       -2.569849   -0.346077    0.000311
      8          6           0        1.414993    1.224208   -0.000089
      9          6           0        0.317774    2.085346    0.000111
     10          1           0       -1.820021    2.250963    0.000111
     11          1           0       -0.841793   -2.465937   -0.889489
     12          1           0        0.655397   -2.721725   -0.006789
     13          1           0       -0.830396   -2.466421    0.896311
     14          1           0       -2.754653   -0.948578   -0.894889
     15          1           0       -2.752194   -0.953081    0.893111
     16          1           0       -3.310561    0.461296    0.003511
     17          1           0        2.417738    1.643127    0.000311
     18          1           0        0.471286    3.160587    0.000411
     19          1           0        3.112035   -0.442590    0.000411
 ---------------------------------------------------------------------
 Rotational constants (GHZ):           2.2872478           1.7608157           1.0076684
 Standard basis: 6-311++G(d,p) (5D, 7F)
 There are   277 symmetry adapted cartesian basis functions of A   symmetry.
 There are   268 symmetry adapted basis functions of A   symmetry.
   268 basis functions,   414 primitive gaussians,   277 cartesian basis functions
    33 alpha electrons       33 beta electrons
       nuclear repulsion energy       431.9743876045 Hartrees.
 NAtoms=   19 NActive=   19 NUniq=   19 SFac= 1.00D+00 NAtFMM=   60 NAOKFM=F Big=F
 Integral buffers will be    131072 words long.
 Raffenetti 2 integral format.
 Two-electron integral symmetry is turned on.
 R6APFD:  NTU= -4 IXU= 1 FactS= 1.050
 Nuclear repulsion after empirical dispersion term =      431.9637270385 Hartrees.
 One-electron integrals computed using PRISM.
 NBasis=   268 RedAO= T EigKep=  3.17D-06  NBF=   268
 NBsUse=   266 1.00D-06 EigRej=  9.42D-07 NBFU=   266
 ExpMin= 3.60D-02 ExpMax= 8.59D+03 ExpMxC= 1.30D+03 IAcc=3 IRadAn=         5 AccDes= 0.00D+00
 Harris functional with IExCor= 1009 and IRadAn=       5 diagonalized for initial guess.
 HarFok:  IExCor= 1009 AccDes= 0.00D+00 IRadAn=         5 IDoV= 1 UseB2=F ITyADJ=14
 ICtDFT=  3500011 ScaDFX=  1.000000  1.000000  1.000000  1.000000
 FoFCou: FMM=F IPFlag=           0 FMFlag=      100000 FMFlg1=           0
         NFxFlg=           0 DoJE=T BraDBF=F KetDBF=T FulRan=T
         wScrn=  0.000000 ICntrl=       500 IOpCl=  0 I1Cent=   200000004 NGrid=           0
         NMat0=    1 NMatS0=      1 NMatT0=    0 NMatD0=    1 NMtDS0=    0 NMtDT0=    0
 Petite list used in FoFCou.
 Requested convergence on RMS density matrix=1.00D-08 within  32 cycles.
 Requested convergence on MAX density matrix=1.00D-06.
 Requested convergence on             energy=1.00D-06.
 No special actions if energy rises.
 SCF Done:  E(RM08HX) =  -386.104618051     A.U. after   13 cycles
            NFock= 13  Conv=0.71D-08     -V/T= 2.0048
 QCSCF skips out because SCF is already converged.

 **********************************************************************

            Population analysis using the SCF Density.

 **********************************************************************

 Orbital symmetries:
       Occupied  (A) (A) (A) (A) (A) (A) (A) (A) (A) (A) (A) (A)
                 (A) (A) (A) (A) (A) (A) (A) (A) (A) (A) (A) (A)
                 (A) (A) (A) (A) (A) (A) (A) (A) (A)
       Virtual   (A) (A) (A) (A) (A) (A) (A) (A) (A) (A) (A) (A)
                 (A) (A) (A) (A) (A) (A) (A) (A) (A) (A) (A) (A)
                 (A) (A) (A) (A) (A) (A) (A) (A) (A) (A) (A) (A)
                 (A) (A) (A) (A) (A) (A) (A) (A) (A) (A) (A) (A)
                 (A) (A) (A) (A) (A) (A) (A) (A) (A) (A) (A) (A)
                 (A) (A) (A) (A) (A) (A) (A) (A) (A) (A) (A) (A)
                 (A) (A) (A) (A) (A) (A) (A) (A) (A) (A) (A) (A)
                 (A) (A) (A) (A) (A) (A) (A) (A) (A) (A) (A) (A)
                 (A) (A) (A) (A) (A) (A) (A) (A) (A) (A) (A) (A)
                 (A) (A) (A) (A) (A) (A) (A) (A) (A) (A) (A) (A)
                 (A) (A) (A) (A) (A) (A) (A) (A) (A) (A) (A) (A)
                 (A) (A) (A) (A) (A) (A) (A) (A) (A) (A) (A) (A)
                 (A) (A) (A) (A) (A) (A) (A) (A) (A) (A) (A) (A)
                 (A) (A) (A) (A) (A) (A) (A) (A) (A) (A) (A) (A)
                 (A) (A) (A) (A) (A) (A) (A) (A) (A) (A) (A) (A)
                 (A) (A) (A) (A) (A) (A) (A) (A) (A) (A) (A) (A)
                 (A) (A) (A) (A) (A) (A) (A) (A) (A) (A) (A) (A)
                 (A) (A) (A) (A) (A) (A) (A) (A) (A) (A) (A) (A)
                 (A) (A) (A) (A) (A) (A) (A) (A) (A) (A) (A) (A)
                 (A) (A) (A) (A) (A)
 The electronic state is 1-A.
 Alpha  occ. eigenvalues --  -19.64150 -10.59433 -10.54105 -10.53607 -10.53369
 Alpha  occ. eigenvalues --  -10.53110 -10.52326 -10.52323 -10.51741  -1.18583
 Alpha  occ. eigenvalues --   -0.97241  -0.88642  -0.86284  -0.79375  -0.76990
 Alpha  occ. eigenvalues --   -0.70367  -0.66959  -0.60779  -0.57146  -0.55843
 Alpha  occ. eigenvalues --   -0.51805  -0.50163  -0.48355  -0.47854  -0.47122
 Alpha  occ. eigenvalues --   -0.46385  -0.45190  -0.44155  -0.41094  -0.40081
 Alpha  occ. eigenvalues --   -0.39300  -0.29586  -0.27795
 Alpha virt. eigenvalues --   -0.02932  -0.01928  -0.01306   0.00416   0.00563
 Alpha virt. eigenvalues --    0.01001   0.01194   0.02727   0.02873   0.03623
 Alpha virt. eigenvalues --    0.04009   0.04050   0.04625   0.06683   0.06935
 Alpha virt. eigenvalues --    0.07650   0.08089   0.08781   0.09334   0.09508
 Alpha virt. eigenvalues --    0.10866   0.11498   0.11623   0.12135   0.12208
 Alpha virt. eigenvalues --    0.13213   0.13537   0.13701   0.14432   0.15309
 Alpha virt. eigenvalues --    0.16101   0.16511   0.16816   0.17005   0.17784
 Alpha virt. eigenvalues --    0.18472   0.18596   0.19153   0.20098   0.20512
 Alpha virt. eigenvalues --    0.21102   0.21539   0.22082   0.23820   0.24090
 Alpha virt. eigenvalues --    0.25878   0.26464   0.27882   0.28760   0.28822
 Alpha virt. eigenvalues --    0.29463   0.30632   0.32145   0.32755   0.33212
 Alpha virt. eigenvalues --    0.33757   0.34110   0.36188   0.37852   0.39870
 Alpha virt. eigenvalues --    0.41354   0.41994   0.43562   0.44889   0.47452
 Alpha virt. eigenvalues --    0.48122   0.49373   0.52794   0.55904   0.57257
 Alpha virt. eigenvalues --    0.57803   0.59272   0.59702   0.61284   0.62390
 Alpha virt. eigenvalues --    0.63255   0.63424   0.64167   0.64427   0.65206
 Alpha virt. eigenvalues --    0.67394   0.67535   0.68597   0.69934   0.71823
 Alpha virt. eigenvalues --    0.73008   0.74363   0.74969   0.75379   0.77010
 Alpha virt. eigenvalues --    0.77875   0.80861   0.81347   0.82416   0.84730
 Alpha virt. eigenvalues --    0.88146   0.88401   0.92194   0.93156   0.93865
 Alpha virt. eigenvalues --    0.95997   0.98015   0.99440   1.02371   1.02865
 Alpha virt. eigenvalues --    1.04856   1.06422   1.08320   1.09778   1.10188
 Alpha virt. eigenvalues --    1.14652   1.16788   1.17602   1.25280   1.25646
 Alpha virt. eigenvalues --    1.30548   1.33336   1.35744   1.40593   1.43826
 Alpha virt. eigenvalues --    1.45067   1.46703   1.48762   1.51033   1.51500
 Alpha virt. eigenvalues --    1.56318   1.56432   1.59040   1.59931   1.60363
 Alpha virt. eigenvalues --    1.60447   1.61955   1.63665   1.64360   1.64477
 Alpha virt. eigenvalues --    1.68925   1.69900   1.72187   1.74613   1.77830
 Alpha virt. eigenvalues --    1.79719   1.80004   1.83717   1.85242   1.85277
 Alpha virt. eigenvalues --    1.87929   1.90073   1.91494   1.94579   1.96762
 Alpha virt. eigenvalues --    1.97346   1.98682   1.99881   2.02880   2.06504
 Alpha virt. eigenvalues --    2.08223   2.09971   2.11627   2.16603   2.20277
 Alpha virt. eigenvalues --    2.22865   2.25942   2.29394   2.32517   2.33540
 Alpha virt. eigenvalues --    2.34882   2.39014   2.46392   2.46486   2.47259
 Alpha virt. eigenvalues --    2.49762   2.50256   2.52371   2.57390   2.58142
 Alpha virt. eigenvalues --    2.59267   2.61510   2.65222   2.67086   2.67772
 Alpha virt. eigenvalues --    2.69395   2.70903   2.71878   2.73467   2.74802
 Alpha virt. eigenvalues --    2.75287   2.77119   2.84117   2.87227   2.87582
 Alpha virt. eigenvalues --    2.91811   2.92170   2.98469   3.01538   3.02714
 Alpha virt. eigenvalues --    3.12661   3.16868   3.18051   3.19979   3.26687
 Alpha virt. eigenvalues --    3.27882   3.29191   3.39055   3.45471   3.48247
 Alpha virt. eigenvalues --    3.52767   3.58984   3.66307   3.73051   3.80390
 Alpha virt. eigenvalues --    3.81853   3.87876   3.89934   3.93228   3.97598
 Alpha virt. eigenvalues --    4.10064   4.17054   4.26243   4.38313   4.47591
 Alpha virt. eigenvalues --    4.94563   5.13723   5.57585   5.85236  23.63050
 Alpha virt. eigenvalues --   23.98982  24.00070  24.03972  24.05432  24.13800
 Alpha virt. eigenvalues --   24.16094  24.24440  49.97097
          Condensed to atoms (all electrons):
               1          2          3          4          5          6
     1  O    7.997964  -0.543400   0.014951   0.325654   0.014961  -0.053583
     2  C   -0.543400  15.276137   1.832308  -2.465932  -3.550278  -0.937810
     3  C    0.014951   1.832308   9.056374  -0.914744  -2.119184  -0.765185
     4  C    0.325654  -2.465932  -0.914744  10.406776   2.060982  -0.200013
     5  C    0.014961  -3.550278  -2.119184   2.060982   9.978305  -0.485358
     6  C   -0.053583  -0.937810  -0.765185  -0.200013  -0.485358   9.422666
     7  C    0.001826  -0.880097  -1.839268  -0.223695   0.482250  -0.680743
     8  C    0.187965  -6.425030   0.381810  -0.794053   1.551286  -1.163104
     9  C    0.029454   2.445717  -0.734208  -0.979216  -0.966329   0.704996
    10  H   -0.000964  -0.029543  -0.031239   0.043482   0.406562  -0.019702
    11  H    0.002175  -0.020776  -0.009165   0.001044  -0.005948   0.333395
    12  H   -0.009312   0.000301   0.021630  -0.012011  -0.014932   0.424676
    13  H    0.002127  -0.019169  -0.008319  -0.001245  -0.006957   0.336478
    14  H   -0.000228   0.014207   0.026336  -0.008438  -0.040590   0.010347
    15  H   -0.000222   0.013404   0.027703  -0.008346  -0.040955   0.013070
    16  H    0.000499   0.036211  -0.144369  -0.025973   0.016948   0.007352
    17  H   -0.020935  -0.037630   0.008171  -0.166470   0.013411  -0.016763
    18  H    0.000185   0.104120   0.027794   0.025357  -0.124817   0.012255
    19  H    0.251618   0.194046  -0.013992   0.169486  -0.004774   0.034189
               7          8          9         10         11         12
     1  O    0.001826   0.187965   0.029454  -0.000964   0.002175  -0.009312
     2  C   -0.880097  -6.425030   2.445717  -0.029543  -0.020776   0.000301
     3  C   -1.839268   0.381810  -0.734208  -0.031239  -0.009165   0.021630
     4  C   -0.223695  -0.794053  -0.979216   0.043482   0.001044  -0.012011
     5  C    0.482250   1.551286  -0.966329   0.406562  -0.005948  -0.014932
     6  C   -0.680743  -1.163104   0.704996  -0.019702   0.333395   0.424676
     7  C    8.725955   0.478313  -0.427554   0.014307   0.018723  -0.010761
     8  C    0.478313  13.822847  -2.094640   0.051994   0.022882  -0.072644
     9  C   -0.427554  -2.094640   7.826363  -0.070184  -0.002412   0.008371
    10  H    0.014307   0.051994  -0.070184   0.437219  -0.000067  -0.000003
    11  H    0.018723   0.022882  -0.002412  -0.000067   0.561065  -0.021300
    12  H   -0.010761  -0.072644   0.008371  -0.000003  -0.021300   0.420615
    13  H    0.016770   0.023233  -0.002326  -0.000045  -0.086358  -0.019400
    14  H    0.354580  -0.006149  -0.003195  -0.000820   0.004755  -0.000493
    15  H    0.351659  -0.006161  -0.003394  -0.000709   0.001456  -0.000325
    16  H    0.406183  -0.008202   0.043544   0.002103  -0.000609   0.000583
    17  H   -0.000626   0.539829   0.009950   0.001991   0.000275  -0.001303
    18  H   -0.011697  -0.116193   0.377137  -0.007892  -0.000111   0.000456
    19  H   -0.001348  -0.378168   0.014995   0.000018  -0.000065   0.003545
              13         14         15         16         17         18
     1  O    0.002127  -0.000228  -0.000222   0.000499  -0.020935   0.000185
     2  C   -0.019169   0.014207   0.013404   0.036211  -0.037630   0.104120
     3  C   -0.008319   0.026336   0.027703  -0.144369   0.008171   0.027794
     4  C   -0.001245  -0.008438  -0.008346  -0.025973  -0.166470   0.025357
     5  C   -0.006957  -0.040590  -0.040955   0.016948   0.013411  -0.124817
     6  C    0.336478   0.010347   0.013070   0.007352  -0.016763   0.012255
     7  C    0.016770   0.354580   0.351659   0.406183  -0.000626  -0.011697
     8  C    0.023233  -0.006149  -0.006161  -0.008202   0.539829  -0.116193
     9  C   -0.002326  -0.003195  -0.003394   0.043544   0.009950   0.377137
    10  H   -0.000045  -0.000820  -0.000709   0.002103   0.001991  -0.007892
    11  H   -0.086358   0.004755   0.001456  -0.000609   0.000275  -0.000111
    12  H   -0.019400  -0.000493  -0.000325   0.000583  -0.001303   0.000456
    13  H    0.556861   0.001995   0.004872  -0.000846   0.000320  -0.000127
    14  H    0.001995   0.541241  -0.080063  -0.017899  -0.000108   0.000086
    15  H    0.004872  -0.080063   0.542950  -0.018774  -0.000101   0.000071
    16  H   -0.000846  -0.017899  -0.018774   0.462805  -0.000068   0.001015
    17  H    0.000320  -0.000108  -0.000101  -0.000068   0.458230  -0.003818
    18  H   -0.000127   0.000086   0.000071   0.001015  -0.003818   0.415075
    19  H   -0.000128   0.000024   0.000022  -0.000107  -0.001285   0.000944
              19
     1  O    0.251618
     2  C    0.194046
     3  C   -0.013992
     4  C    0.169486
     5  C   -0.004774
     6  C    0.034189
     7  C   -0.001348
     8  C   -0.378168
     9  C    0.014995
    10  H    0.000018
    11  H   -0.000065
    12  H    0.003545
    13  H   -0.000128
    14  H    0.000024
    15  H    0.000022
    16  H   -0.000107
    17  H   -0.001285
    18  H    0.000944
    19  H    0.438045
 Mulliken charges:
               1
     1  O   -0.200736
     2  C    0.993214
     3  C    1.182594
     4  C   -1.232647
     5  C   -1.164585
     6  C   -0.977163
     7  C   -0.774779
     8  C    0.004187
     9  C   -0.177069
    10  H    0.203491
    11  H    0.201041
    12  H    0.282306
    13  H    0.202263
    14  H    0.204410
    15  H    0.203846
    16  H    0.239602
    17  H    0.216930
    18  H    0.300159
    19  H    0.292935
 Sum of Mulliken charges =  -0.00000
 Mulliken charges with hydrogens summed into heavy atoms:
               1
     1  O    0.092199
     2  C    0.993214
     3  C    1.182594
     4  C   -1.232647
     5  C   -0.961094
     6  C   -0.291553
     7  C   -0.126921
     8  C    0.221117
     9  C    0.123091
 Electronic spatial extent (au):  <R**2>=           1178.1896
 Charge=             -0.0000 electrons
 Dipole moment (field-independent basis, Debye):
    X=              0.3309    Y=              0.6585    Z=              0.0011  Tot=              0.7370
 Quadrupole moment (field-independent basis, Debye-Ang):
   XX=            -45.7168   YY=            -53.6202   ZZ=            -58.4803
   XY=              3.2709   XZ=              0.0001   YZ=              0.0036
 Traceless Quadrupole moment (field-independent basis, Debye-Ang):
   XX=              6.8890   YY=             -1.0144   ZZ=             -5.8746
   XY=              3.2709   XZ=              0.0001   YZ=              0.0036
 Octapole moment (field-independent basis, Debye-Ang**2):
  XXX=             35.5029  YYY=              4.8575  ZZZ=              0.0132  XYY=             -1.4974
  XXY=              8.0396  XXZ=             -0.0019  XZZ=              0.5978  YZZ=             -7.5194
  YYZ=              0.0013  XYZ=              0.0030
 Hexadecapole moment (field-independent basis, Debye-Ang**3):
 XXXX=           -702.3503 YYYY=           -668.0755 ZZZZ=            -80.7857 XXXY=             -2.8574
 XXXZ=              0.0269 YYYX=             -4.4873 YYYZ=              0.0397 ZZZX=              0.0160
 ZZZY=             -0.0335 XXYY=           -258.4917 XXZZ=           -157.3365 YYZZ=           -138.0940
 XXYZ=              0.0498 YYXZ=             -0.0203 ZZXY=              1.3688
 N-N= 4.319637270385D+02 E-N=-1.761764439100D+03  KE= 3.842718900077D+02
 R6APFD:  NTU= -4 IXU= 1 FactS= 1.050
 Calling FoFJK, ICntrl=      2127 FMM=F ISym2X=0 I1Cent= 0 IOpClX= 0 NMat=1 NMatS=1 NMatT=0.
 ***** Axes restored to original set *****
 -------------------------------------------------------------------
 Center     Atomic                   Forces (Hartrees/Bohr)
 Number     Number              X              Y              Z
 -------------------------------------------------------------------
      1        8           0.007655481    0.000511469   -0.000015600
      2        6           0.006718832   -0.008836618   -0.000057016
      3        6           0.000310195    0.014150807    0.000065162
      4        6           0.003493838    0.016086376    0.000034157
      5        6           0.009175050    0.004172313   -0.000003707
      6        6           0.003218454   -0.007204639   -0.000151099
      7        6          -0.005130186   -0.001155082    0.000067653
      8        6          -0.009498429    0.006633520    0.000014088
      9        6           0.000324311   -0.006291126   -0.000029585
     10        1          -0.002524856   -0.001363708    0.000003863
     11        1          -0.003895269   -0.002020618    0.000539505
     12        1           0.001314101    0.003636117    0.000065334
     13        1          -0.003874094   -0.002115734   -0.000413970
     14        1          -0.000968145   -0.004718829    0.000603403
     15        1          -0.000926036   -0.004681281   -0.000692663
     16        1           0.001775410    0.001215271   -0.000018189
     17        1           0.003478716   -0.000216461   -0.000005590
     18        1           0.000803824    0.001611603    0.000000682
     19        1          -0.011451196   -0.009413380   -0.000006427
 -------------------------------------------------------------------
 Cartesian Forces:  Max     0.016086376 RMS     0.004898698

 GradGradGradGradGradGradGradGradGradGradGradGradGradGradGradGradGradGrad
 Berny optimization.
 FormGI is forming the generalized inverse of G from B-inverse, IUseBI=4.
 Internal  Forces:  Max     0.014821500 RMS     0.003500434
 Search for a local minimum.
 Step number   1 out of a maximum of   98
 All quantities printed in internal units (Hartrees-Bohrs-Radians)
 Mixed Optimization -- RFO/linear search
 Second derivative matrix not updated -- first step.
 ITU=  0
     Eigenvalues ---    0.00828   0.00851   0.01610   0.01649   0.02156
     Eigenvalues ---    0.02156   0.02156   0.02157   0.02157   0.02158
     Eigenvalues ---    0.02161   0.02185   0.07109   0.07279   0.07282
     Eigenvalues ---    0.07308   0.16000   0.16000   0.16000   0.16000
     Eigenvalues ---    0.16000   0.16000   0.16000   0.16000   0.16000
     Eigenvalues ---    0.16000   0.22085   0.23479   0.24913   0.25000
     Eigenvalues ---    0.25000   0.25000   0.32871   0.33059   0.34164
     Eigenvalues ---    0.34224   0.34233   0.34253   0.34266   0.34325
     Eigenvalues ---    0.35184   0.35193   0.35262   0.42404   0.42417
     Eigenvalues ---    0.46467   0.46473   0.46482   0.46492   0.52401
     Eigenvalues ---    0.52855
 RFO step:  Lambda=-3.94883912D-03 EMin= 8.27574715D-03
 Linear search not attempted -- first point.
 Iteration  1 RMS(Cart)=  0.02665834 RMS(Int)=  0.00041846
 Iteration  2 RMS(Cart)=  0.00068088 RMS(Int)=  0.00002879
 Iteration  3 RMS(Cart)=  0.00000015 RMS(Int)=  0.00002879
 Variable       Old X    -DE/DX   Delta X   Delta X   Delta X     New X
                                 (Linear)    (Quad)   (Total)
    R1        2.57517   0.00164   0.00000   0.00310   0.00310   2.57827
    R2        1.83789  -0.01482   0.00000  -0.02783  -0.02783   1.81006
    R3        2.63604   0.00407   0.00000   0.00931   0.00932   2.64536
    R4        2.63610   0.00151   0.00000   0.00378   0.00380   2.63989
    R5        2.82579   0.00789   0.00000   0.02371   0.02371   2.84950
    R6        2.63595   0.00229   0.00000   0.00494   0.00494   2.64090
    R7        2.82248   0.00873   0.00000   0.02610   0.02610   2.84857
    R8        2.63611   0.00236   0.00000   0.00498   0.00498   2.64109
    R9        2.63576  -0.00221   0.00000  -0.00527  -0.00529   2.63047
   R10        2.05378   0.00130   0.00000   0.00366   0.00366   2.05743
   R11        2.06954   0.00211   0.00000   0.00609   0.00609   2.07563
   R12        2.06786  -0.00045   0.00000  -0.00131  -0.00131   2.06655
   R13        2.06938   0.00219   0.00000   0.00632   0.00632   2.07570
   R14        2.06883   0.00228   0.00000   0.00657   0.00657   2.07541
   R15        2.06905   0.00220   0.00000   0.00634   0.00634   2.07539
   R16        2.07054  -0.00047   0.00000  -0.00135  -0.00135   2.06918
   R17        2.63578  -0.00480   0.00000  -0.01086  -0.01088   2.62490
   R18        2.05363   0.00300   0.00000   0.00842   0.00842   2.06206
   R19        2.05252   0.00166   0.00000   0.00465   0.00465   2.05717
    A1        1.90356   0.00063   0.00000   0.00381   0.00381   1.90737
    A2        2.09436  -0.00530   0.00000  -0.01869  -0.01866   2.07570
    A3        2.09818   0.00219   0.00000   0.00754   0.00753   2.10571
    A4        2.09064   0.00311   0.00000   0.01115   0.01114   2.10178
    A5        2.09439   0.00018   0.00000   0.00196   0.00197   2.09636
    A6        2.11282  -0.00677   0.00000  -0.02728  -0.02728   2.08554
    A7        2.07598   0.00658   0.00000   0.02531   0.02531   2.10128
    A8        2.10949  -0.01447   0.00000  -0.05745  -0.05746   2.05203
    A9        2.07948   0.01073   0.00000   0.04178   0.04177   2.12126
   A10        2.09422   0.00374   0.00000   0.01567   0.01568   2.10990
   A11        2.09450   0.00181   0.00000   0.00697   0.00695   2.10145
   A12        2.11129  -0.00353   0.00000  -0.01949  -0.01948   2.09181
   A13        2.07740   0.00172   0.00000   0.01252   0.01253   2.08992
   A14        1.92717   0.00248   0.00000   0.01324   0.01331   1.94049
   A15        1.97432  -0.00558   0.00000  -0.03007  -0.02995   1.94438
   A16        1.92672   0.00257   0.00000   0.01359   0.01366   1.94038
   A17        1.86255   0.00230   0.00000   0.01798   0.01810   1.88065
   A18        1.90673  -0.00407   0.00000  -0.03258  -0.03256   1.87417
   A19        1.86361   0.00219   0.00000   0.01698   0.01710   1.88071
   A20        1.93156   0.00268   0.00000   0.01363   0.01366   1.94521
   A21        1.93165   0.00265   0.00000   0.01343   0.01347   1.94512
   A22        1.94983  -0.00313   0.00000  -0.01364  -0.01361   1.93623
   A23        1.91086  -0.00476   0.00000  -0.03933  -0.03930   1.87157
   A24        1.86900   0.00116   0.00000   0.01227   0.01230   1.88129
   A25        1.86873   0.00119   0.00000   0.01255   0.01258   1.88131
   A26        2.09459  -0.00064   0.00000  -0.00431  -0.00432   2.09027
   A27        2.10816  -0.00151   0.00000  -0.00900  -0.00899   2.09917
   A28        2.08043   0.00215   0.00000   0.01331   0.01331   2.09374
   A29        2.09432   0.00021   0.00000  -0.00160  -0.00163   2.09269
   A30        2.09446   0.00061   0.00000   0.00519   0.00521   2.09966
   A31        2.09441  -0.00082   0.00000  -0.00359  -0.00357   2.09084
    D1       -3.14154  -0.00001   0.00000  -0.00047  -0.00046   3.14118
    D2       -0.00045   0.00000   0.00000   0.00013   0.00013  -0.00032
    D3       -0.00000   0.00000   0.00000   0.00015   0.00015   0.00015
    D4       -3.14088  -0.00001   0.00000  -0.00057  -0.00056  -3.14144
    D5        3.14096   0.00001   0.00000   0.00018   0.00018   3.14113
    D6        0.00008  -0.00001   0.00000  -0.00053  -0.00053  -0.00045
    D7        3.14100   0.00001   0.00000   0.00044   0.00043   3.14142
    D8       -0.00008  -0.00000   0.00000  -0.00017  -0.00017  -0.00026
    D9        0.00004   0.00001   0.00000   0.00041   0.00040   0.00044
   D10       -3.14104  -0.00001   0.00000  -0.00021  -0.00020  -3.14124
   D11        1.04902  -0.00090   0.00000  -0.01160  -0.01156   1.03746
   D12        3.13497   0.00003   0.00000   0.00051   0.00051   3.13548
   D13       -1.06123   0.00088   0.00000   0.01160   0.01156  -1.04968
   D14       -2.09321  -0.00090   0.00000  -0.01158  -0.01154  -2.10474
   D15       -0.00726   0.00003   0.00000   0.00054   0.00053  -0.00672
   D16        2.07973   0.00088   0.00000   0.01162   0.01158   2.09130
   D17        0.00000   0.00000   0.00000   0.00006   0.00005   0.00005
   D18       -3.14147  -0.00000   0.00000  -0.00017  -0.00017   3.14155
   D19        3.14090   0.00001   0.00000   0.00074   0.00075  -3.14154
   D20       -0.00057   0.00001   0.00000   0.00051   0.00052  -0.00005
   D21       -1.06385   0.00121   0.00000   0.01589   0.01589  -1.04795
   D22        1.05780  -0.00120   0.00000  -0.01556  -0.01556   1.04224
   D23        3.13844   0.00001   0.00000   0.00028   0.00028   3.13872
   D24        2.07845   0.00119   0.00000   0.01519   0.01519   2.09364
   D25       -2.08309  -0.00122   0.00000  -0.01626  -0.01626  -2.09935
   D26       -0.00245  -0.00000   0.00000  -0.00042  -0.00042  -0.00287
   D27       -3.14093  -0.00001   0.00000  -0.00058  -0.00060  -3.14152
   D28        0.00024  -0.00000   0.00000  -0.00024  -0.00025  -0.00001
   D29        0.00017   0.00000   0.00000  -0.00000  -0.00000   0.00016
   D30        3.14133   0.00001   0.00000   0.00034   0.00034  -3.14151
   D31        0.00008  -0.00001   0.00000  -0.00024  -0.00023  -0.00015
   D32       -3.14152  -0.00000   0.00000  -0.00015  -0.00015   3.14151
   D33        3.14155  -0.00000   0.00000  -0.00001  -0.00001   3.14154
   D34       -0.00005   0.00000   0.00000   0.00007   0.00008   0.00002
   D35       -0.00017   0.00001   0.00000   0.00021   0.00021   0.00004
   D36        3.14144   0.00000   0.00000   0.00012   0.00012   3.14156
   D37       -3.14134  -0.00000   0.00000  -0.00012  -0.00013  -3.14147
   D38        0.00027  -0.00000   0.00000  -0.00021  -0.00021   0.00005
         Item               Value     Threshold  Converged?
 Maximum Force            0.014821     0.000450     NO 
 RMS     Force            0.003500     0.000300     NO 
 Maximum Displacement     0.136252     0.001800     NO 
 RMS     Displacement     0.026753     0.001200     NO 
 Predicted change in Energy=-2.008781D-03
 GradGradGradGradGradGradGradGradGradGradGradGradGradGradGradGradGradGrad

                          Input orientation:                          
 ---------------------------------------------------------------------
 Center     Atomic      Atomic             Coordinates (Angstroms)
 Number     Number       Type             X           Y           Z
 ---------------------------------------------------------------------
      1          8           0        2.321243   -0.909350    0.000032
      2          6           0       -0.035223   -0.752716   -0.000083
      3          6           0       -1.194804    0.031501    0.000149
      4          6           0        1.209478   -0.118486    0.000062
      5          6           0       -1.098352    1.425671    0.000343
      6          6           0       -0.125232   -2.257915    0.000301
      7          6           0       -2.544566   -0.639617    0.000194
      8          6           0        1.304232    1.275901    0.000126
      9          6           0        0.147960    2.045615    0.000241
     10          1           0       -2.002985    2.031484    0.000480
     11          1           0       -0.669004   -2.623206   -0.881347
     12          1           0        0.867252   -2.717079   -0.006166
     13          1           0       -0.657610   -2.623340    0.888865
     14          1           0       -2.677075   -1.275357   -0.885495
     15          1           0       -2.674544   -1.280101    0.882825
     16          1           0       -3.350237    0.101890    0.003325
     17          1           0        2.281744    1.760847    0.000162
     18          1           0        0.221147    3.131760    0.000318
     19          1           0        3.103076   -0.356001   -0.000231
 ---------------------------------------------------------------------
                    Distance matrix (angstroms):
                    1          2          3          4          5
     1  O    0.000000
     2  C    2.361666   0.000000
     3  C    3.639751   1.399865   0.000000
     4  C    1.364364   1.396972   2.408956   0.000000
     5  C    4.140767   2.423966   1.397502   2.776779   0.000000
     6  C    2.793540   1.507888   2.526937   2.521629   3.809956
     7  C    4.873279   2.511890   1.507401   3.790042   2.521298
     8  C    2.410318   2.430931   2.791722   1.397602   2.407248
     9  C    3.668103   2.804320   2.420675   2.410426   1.391986
    10  H    5.229479   3.409377   2.157101   3.865525   1.088747
    11  H    3.557486   2.162646   2.846220   3.252568   4.165947
    12  H    2.319917   2.161764   3.436103   2.621039   4.585414
    13  H    3.549838   2.162598   2.850715   3.248120   4.168719
    14  H    5.089332   2.834870   2.165496   4.150646   3.251557
    15  H    5.086715   2.832609   2.165421   4.149006   3.253361
    16  H    5.760929   3.423402   2.156585   4.565039   2.612162
    17  H    2.670490   3.418528   3.882914   2.163711   3.396674
    18  H    4.554226   3.892927   3.408302   3.397189   2.156808
    19  H    0.957840   3.163275   4.315314   1.908436   4.563591
                    6          7          8          9         10
     6  C    0.000000
     7  C    2.910681   0.000000
     8  C    3.811984   4.299122   0.000000
     9  C    4.312192   3.802652   1.389038   0.000000
    10  H    4.682403   2.725452   3.392432   2.150991   0.000000
    11  H    1.098375   2.868705   4.457991   4.821049   4.921713
    12  H    1.093571   3.994545   4.016825   4.816708   5.548617
    13  H    1.098411   2.878454   4.454522   4.820554   4.926119
    14  H    2.874362   1.098258   4.810827   4.449068   3.489204
    15  H    2.869487   1.098249   4.810713   4.450378   3.492294
    16  H    3.996167   1.094965   4.800250   4.001932   2.353387
    17  H    4.684440   5.390314   1.091193   2.152702   4.293267
    18  H    5.400794   4.676799   2.148787   1.088608   2.481405
    19  H    3.746899   5.654759   2.428774   3.807949   5.636661
                   11         12         13         14         15
    11  H    0.000000
    12  H    1.770546   0.000000
    13  H    1.770249   1.770613   0.000000
    14  H    2.418484   3.926071   3.007267   0.000000
    15  H    2.989719   3.924223   2.423293   1.768328   0.000000
    16  H    3.924004   5.072858   3.932087   1.771993   1.771999
    17  H    5.357601   4.696025   5.352634   5.881565   5.881432
    18  H    5.889765   5.884421   5.889220   5.348555   5.350548
    19  H    4.488337   3.251713   4.480410   5.919380   5.917317
                   16         17         18         19
    16  H    0.000000
    17  H    5.871232   0.000000
    18  H    4.683472   2.474967   0.000000
    19  H    6.469539   2.270602   4.524378   0.000000
 Stoichiometry    C8H10O
 Framework group  C1[X(C8H10O)]
 Deg. of freedom    51
 Full point group                 C1      NOp   1
 Largest Abelian subgroup         C1      NOp   1
 Largest concise Abelian subgroup C1      NOp   1
                         Standard orientation:                         
 ---------------------------------------------------------------------
 Center     Atomic      Atomic             Coordinates (Angstroms)
 Number     Number       Type             X           Y           Z
 ---------------------------------------------------------------------
      1          8           0        2.244002   -1.056868   -0.000135
      2          6           0       -0.085895   -0.670803   -0.000249
      3          6           0       -1.163328    0.222931   -0.000017
      4          6           0        1.214805   -0.161188   -0.000105
      5          6           0       -0.931156    1.601012    0.000176
      6          6           0       -0.322501   -2.160013    0.000135
      7          6           0       -2.572190   -0.313134    0.000027
      8          6           0        1.445310    1.217275   -0.000040
      9          6           0        0.369752    2.096252    0.000074
     10          1           0       -1.772287    2.292292    0.000313
     11          1           0       -0.899354   -2.470441   -0.881513
     12          1           0        0.620386   -2.713927   -0.006333
     13          1           0       -0.888027   -2.471688    0.888699
     14          1           0       -2.766165   -0.932890   -0.885662
     15          1           0       -2.764109   -0.937859    0.882658
     16          1           0       -3.301579    0.503525    0.003158
     17          1           0        2.465516    1.604419   -0.000004
     18          1           0        0.548683    3.170054    0.000152
     19          1           0        3.076148   -0.582534   -0.000397
 ---------------------------------------------------------------------
 Rotational constants (GHZ):           2.2444607           1.7831915           1.0061897
 Standard basis: 6-311++G(d,p) (5D, 7F)
 There are   277 symmetry adapted cartesian basis functions of A   symmetry.
 There are   268 symmetry adapted basis functions of A   symmetry.
   268 basis functions,   414 primitive gaussians,   277 cartesian basis functions
    33 alpha electrons       33 beta electrons
       nuclear repulsion energy       431.4300794482 Hartrees.
 NAtoms=   19 NActive=   19 NUniq=   19 SFac= 1.00D+00 NAtFMM=   60 NAOKFM=F Big=F
 Integral buffers will be    131072 words long.
 Raffenetti 2 integral format.
 Two-electron integral symmetry is turned on.
 R6APFD:  NTU= -4 IXU= 1 FactS= 1.050
 Nuclear repulsion after empirical dispersion term =      431.4193626077 Hartrees.
 One-electron integrals computed using PRISM.
 NBasis=   268 RedAO= T EigKep=  3.31D-06  NBF=   268
 NBsUse=   266 1.00D-06 EigRej=  9.74D-07 NBFU=   266
 Initial guess from the checkpoint file:  "OXY0068.chk"
 B after Tr=    -0.000000    0.000000    0.000000
         Rot=    0.999940   -0.000015   -0.000016    0.010945 Ang=  -1.25 deg.
 ExpMin= 3.60D-02 ExpMax= 8.59D+03 ExpMxC= 1.30D+03 IAcc=3 IRadAn=         5 AccDes= 0.00D+00
 Harris functional with IExCor= 1009 and IRadAn=       5 diagonalized for initial guess.
 HarFok:  IExCor= 1009 AccDes= 0.00D+00 IRadAn=         5 IDoV= 1 UseB2=F ITyADJ=14
 ICtDFT=  3500011 ScaDFX=  1.000000  1.000000  1.000000  1.000000
 FoFCou: FMM=F IPFlag=           0 FMFlag=      100000 FMFlg1=           0
         NFxFlg=           0 DoJE=T BraDBF=F KetDBF=T FulRan=T
         wScrn=  0.000000 ICntrl=       500 IOpCl=  0 I1Cent=   200000004 NGrid=           0
         NMat0=    1 NMatS0=      1 NMatT0=    0 NMatD0=    1 NMtDS0=    0 NMtDT0=    0
 Petite list used in FoFCou.
 Requested convergence on RMS density matrix=1.00D-08 within  32 cycles.
 Requested convergence on MAX density matrix=1.00D-06.
 Requested convergence on             energy=1.00D-06.
 No special actions if energy rises.
 SCF Done:  E(RM08HX) =  -386.106692018     A.U. after   12 cycles
            NFock= 12  Conv=0.55D-08     -V/T= 2.0049
 QCSCF skips out because SCF is already converged.
 R6APFD:  NTU= -4 IXU= 1 FactS= 1.050
 Calling FoFJK, ICntrl=      2127 FMM=F ISym2X=0 I1Cent= 0 IOpClX= 0 NMat=1 NMatS=1 NMatT=0.
 ***** Axes restored to original set *****
 -------------------------------------------------------------------
 Center     Atomic                   Forces (Hartrees/Bohr)
 Number     Number              X              Y              Z
 -------------------------------------------------------------------
      1        8           0.000579005   -0.000345815    0.000013118
      2        6          -0.000074569   -0.004110809    0.000012860
      3        6          -0.000920022    0.002546743    0.000000107
      4        6          -0.000401690    0.003650019   -0.000015731
      5        6           0.000850409    0.000065995   -0.000011589
      6        6           0.002080555   -0.000703903   -0.000052043
      7        6          -0.000767096    0.001616162    0.000023553
      8        6           0.000429200    0.000407215    0.000000596
      9        6          -0.001485848   -0.001679054    0.000002982
     10        1          -0.000667258   -0.000628627    0.000002957
     11        1          -0.000775354    0.000436082    0.000382445
     12        1          -0.000430531    0.000778953    0.000019705
     13        1          -0.000772448    0.000419995   -0.000356527
     14        1           0.000505359   -0.000506631    0.000299640
     15        1           0.000508033   -0.000513894   -0.000313175
     16        1           0.000080236    0.000131219   -0.000004885
     17        1           0.000255000   -0.001046488   -0.000000775
     18        1           0.000028757   -0.000122823    0.000000839
     19        1           0.000978262   -0.000394340   -0.000004076
 -------------------------------------------------------------------
 Cartesian Forces:  Max     0.004110809 RMS     0.001020094

 GradGradGradGradGradGradGradGradGradGradGradGradGradGradGradGradGradGrad
 Berny optimization.
 Using GEDIIS/GDIIS optimizer.
 FormGI is forming the generalized inverse of G from B-inverse, IUseBI=4.
 Internal  Forces:  Max     0.001766786 RMS     0.000592294
 Search for a local minimum.
 Step number   2 out of a maximum of   98
 All quantities printed in internal units (Hartrees-Bohrs-Radians)
 Mixed Optimization -- En-DIIS/RFO-DIIS
 Update second derivatives using D2CorX and points    1    2
 DE= -2.07D-03 DEPred=-2.01D-03 R= 1.03D+00
 TightC=F SS=  1.41D+00  RLast= 1.33D-01 DXNew= 5.0454D-01 3.9797D-01
 Trust test= 1.03D+00 RLast= 1.33D-01 DXMaxT set to 3.98D-01
 ITU=  1  0
 Use linear search instead of GDIIS.
     Eigenvalues ---    0.00828   0.00851   0.01604   0.01648   0.02156
     Eigenvalues ---    0.02156   0.02156   0.02157   0.02157   0.02158
     Eigenvalues ---    0.02161   0.02185   0.06924   0.07198   0.07236
     Eigenvalues ---    0.07247   0.14981   0.16000   0.16000   0.16000
     Eigenvalues ---    0.16000   0.16000   0.16000   0.16000   0.16000
     Eigenvalues ---    0.16574   0.22056   0.23504   0.24182   0.24981
     Eigenvalues ---    0.25000   0.25595   0.32959   0.33676   0.34165
     Eigenvalues ---    0.34218   0.34229   0.34245   0.34261   0.34491
     Eigenvalues ---    0.35173   0.35237   0.35329   0.41944   0.42460
     Eigenvalues ---    0.46445   0.46477   0.46490   0.47164   0.52125
     Eigenvalues ---    0.54234
 RFO step:  Lambda=-1.44145350D-04 EMin= 8.27574830D-03
 Quartic linear search produced a step of  0.04496.
 Iteration  1 RMS(Cart)=  0.00483696 RMS(Int)=  0.00002268
 Iteration  2 RMS(Cart)=  0.00002356 RMS(Int)=  0.00000819
 Iteration  3 RMS(Cart)=  0.00000000 RMS(Int)=  0.00000819
 Variable       Old X    -DE/DX   Delta X   Delta X   Delta X     New X
                                 (Linear)    (Quad)   (Total)
    R1        2.57827   0.00170   0.00014   0.00336   0.00350   2.58177
    R2        1.81006   0.00057  -0.00125   0.00141   0.00015   1.81021
    R3        2.64536   0.00158   0.00042   0.00360   0.00402   2.64938
    R4        2.63989   0.00151   0.00017   0.00358   0.00375   2.64365
    R5        2.84950  -0.00093   0.00107  -0.00322  -0.00215   2.84734
    R6        2.64090  -0.00177   0.00022  -0.00411  -0.00388   2.63701
    R7        2.84857  -0.00062   0.00117  -0.00223  -0.00105   2.84752
    R8        2.64109  -0.00127   0.00022  -0.00283  -0.00260   2.63848
    R9        2.63047  -0.00095  -0.00024  -0.00230  -0.00254   2.62793
   R10        2.05743   0.00020   0.00016   0.00057   0.00073   2.05816
   R11        2.07563  -0.00007   0.00027  -0.00027   0.00000   2.07563
   R12        2.06655  -0.00072  -0.00006  -0.00217  -0.00223   2.06432
   R13        2.07570  -0.00005   0.00028  -0.00023   0.00006   2.07575
   R14        2.07541  -0.00001   0.00030  -0.00010   0.00020   2.07560
   R15        2.07539  -0.00001   0.00028  -0.00011   0.00018   2.07557
   R16        2.06918   0.00003  -0.00006   0.00011   0.00005   2.06923
   R17        2.62490   0.00048  -0.00049   0.00106   0.00056   2.62547
   R18        2.06206  -0.00024   0.00038  -0.00079  -0.00041   2.06164
   R19        2.05717  -0.00012   0.00021  -0.00041  -0.00020   2.05697
    A1        1.90737   0.00161   0.00017   0.01045   0.01062   1.91799
    A2        2.07570  -0.00111  -0.00084  -0.00370  -0.00454   2.07116
    A3        2.10571   0.00018   0.00034   0.00032   0.00066   2.10636
    A4        2.10178   0.00093   0.00050   0.00338   0.00388   2.10566
    A5        2.09636   0.00061   0.00009   0.00266   0.00275   2.09912
    A6        2.08554  -0.00016  -0.00123  -0.00041  -0.00164   2.08390
    A7        2.10128  -0.00046   0.00114  -0.00225  -0.00111   2.10017
    A8        2.05203  -0.00056  -0.00258  -0.00200  -0.00459   2.04744
    A9        2.12126   0.00029   0.00188   0.00045   0.00232   2.12358
   A10        2.10990   0.00027   0.00071   0.00156   0.00226   2.11216
   A11        2.10145  -0.00017   0.00031  -0.00156  -0.00125   2.10021
   A12        2.09181  -0.00083  -0.00088  -0.00502  -0.00589   2.08592
   A13        2.08992   0.00100   0.00056   0.00658   0.00714   2.09706
   A14        1.94049  -0.00050   0.00060  -0.00459  -0.00401   1.93648
   A15        1.94438  -0.00026  -0.00135   0.00099  -0.00035   1.94403
   A16        1.94038  -0.00049   0.00061  -0.00457  -0.00397   1.93641
   A17        1.88065   0.00078   0.00081   0.00715   0.00797   1.88862
   A18        1.87417  -0.00021  -0.00146  -0.00545  -0.00696   1.86721
   A19        1.88071   0.00076   0.00077   0.00692   0.00769   1.88840
   A20        1.94521  -0.00040   0.00061  -0.00388  -0.00329   1.94193
   A21        1.94512  -0.00039   0.00061  -0.00379  -0.00320   1.94192
   A22        1.93623   0.00017  -0.00061   0.00350   0.00289   1.93912
   A23        1.87157  -0.00026  -0.00177  -0.00540  -0.00720   1.86437
   A24        1.88129   0.00045   0.00055   0.00486   0.00542   1.88671
   A25        1.88131   0.00046   0.00057   0.00498   0.00554   1.88686
   A26        2.09027  -0.00035  -0.00019  -0.00174  -0.00194   2.08833
   A27        2.09917  -0.00091  -0.00040  -0.00608  -0.00648   2.09269
   A28        2.09374   0.00126   0.00060   0.00782   0.00842   2.10217
   A29        2.09269   0.00075  -0.00007   0.00278   0.00271   2.09539
   A30        2.09966  -0.00033   0.00023  -0.00118  -0.00095   2.09872
   A31        2.09084  -0.00041  -0.00016  -0.00160  -0.00176   2.08908
    D1        3.14118  -0.00000  -0.00002  -0.00004  -0.00007   3.14112
    D2       -0.00032  -0.00001   0.00001  -0.00026  -0.00026  -0.00058
    D3        0.00015  -0.00000   0.00001  -0.00001  -0.00000   0.00014
    D4       -3.14144  -0.00000  -0.00003  -0.00002  -0.00004  -3.14149
    D5        3.14113   0.00000   0.00001   0.00009   0.00010   3.14124
    D6       -0.00045   0.00000  -0.00002   0.00008   0.00006  -0.00039
    D7        3.14142  -0.00000   0.00002  -0.00019  -0.00017   3.14126
    D8       -0.00026   0.00000  -0.00001   0.00003   0.00002  -0.00023
    D9        0.00044  -0.00001   0.00002  -0.00029  -0.00027   0.00016
   D10       -3.14124  -0.00000  -0.00001  -0.00007  -0.00008  -3.14133
   D11        1.03746  -0.00047  -0.00052  -0.00654  -0.00704   1.03042
   D12        3.13548   0.00001   0.00002   0.00009   0.00012   3.13560
   D13       -1.04968   0.00046   0.00052   0.00644   0.00694  -1.04274
   D14       -2.10474  -0.00046  -0.00052  -0.00644  -0.00694  -2.11168
   D15       -0.00672   0.00001   0.00002   0.00019   0.00022  -0.00650
   D16        2.09130   0.00046   0.00052   0.00654   0.00704   2.09835
   D17        0.00005  -0.00000   0.00000  -0.00004  -0.00004   0.00002
   D18        3.14155   0.00000  -0.00001   0.00008   0.00007  -3.14157
   D19       -3.14154  -0.00000   0.00003  -0.00003   0.00001  -3.14154
   D20       -0.00005   0.00000   0.00002   0.00009   0.00011   0.00006
   D21       -1.04795   0.00043   0.00071   0.00570   0.00640  -1.04155
   D22        1.04224  -0.00044  -0.00070  -0.00635  -0.00704   1.03520
   D23        3.13872   0.00000   0.00001  -0.00023  -0.00021   3.13850
   D24        2.09364   0.00043   0.00068   0.00569   0.00636   2.10000
   D25       -2.09935  -0.00044  -0.00073  -0.00636  -0.00708  -2.10643
   D26       -0.00287   0.00000  -0.00002  -0.00024  -0.00026  -0.00313
   D27       -3.14152   0.00000  -0.00003   0.00022   0.00020  -3.14132
   D28       -0.00001   0.00000  -0.00001   0.00015   0.00014   0.00013
   D29        0.00016   0.00000  -0.00000  -0.00000  -0.00000   0.00016
   D30       -3.14151  -0.00000   0.00002  -0.00007  -0.00006  -3.14157
   D31       -0.00015   0.00000  -0.00001   0.00007   0.00006  -0.00009
   D32        3.14151   0.00000  -0.00001   0.00008   0.00007   3.14158
   D33        3.14154  -0.00000  -0.00000  -0.00005  -0.00005   3.14150
   D34        0.00002  -0.00000   0.00000  -0.00004  -0.00003  -0.00001
   D35        0.00004  -0.00000   0.00001  -0.00005  -0.00004   0.00000
   D36        3.14156  -0.00000   0.00001  -0.00006  -0.00005   3.14151
   D37       -3.14147   0.00000  -0.00001   0.00003   0.00002  -3.14145
   D38        0.00005   0.00000  -0.00001   0.00002   0.00001   0.00006
         Item               Value     Threshold  Converged?
 Maximum Force            0.001767     0.000450     NO 
 RMS     Force            0.000592     0.000300     NO 
 Maximum Displacement     0.015702     0.001800     NO 
 RMS     Displacement     0.004839     0.001200     NO 
 Predicted change in Energy=-7.633984D-05
 GradGradGradGradGradGradGradGradGradGradGradGradGradGradGradGradGradGrad

                          Input orientation:                          
 ---------------------------------------------------------------------
 Center     Atomic      Atomic             Coordinates (Angstroms)
 Number     Number       Type             X           Y           Z
 ---------------------------------------------------------------------
      1          8           0        2.322547   -0.908169    0.000200
      2          6           0       -0.034036   -0.753489   -0.000056
      3          6           0       -1.194220    0.033631    0.000175
      4          6           0        1.210482   -0.114538    0.000022
      5          6           0       -1.099691    1.425872    0.000303
      6          6           0       -0.125207   -2.257476    0.000265
      7          6           0       -2.543371   -0.637465    0.000233
      8          6           0        1.304026    1.278550    0.000045
      9          6           0        0.145399    2.045258    0.000183
     10          1           0       -2.008968    2.025394    0.000503
     11          1           0       -0.676001   -2.617764   -0.879081
     12          1           0        0.865990   -2.716610   -0.006070
     13          1           0       -0.664606   -2.618026    0.886620
     14          1           0       -2.669966   -1.277460   -0.883383
     15          1           0       -2.667262   -1.282697    0.880396
     16          1           0       -3.351327    0.101589    0.003576
     17          1           0        2.284082    1.757839    0.000083
     18          1           0        0.217518    3.131370    0.000275
     19          1           0        3.111111   -0.364311   -0.000190
 ---------------------------------------------------------------------
                    Distance matrix (angstroms):
                    1          2          3          4          5
     1  O    0.000000
     2  C    2.361655   0.000000
     3  C    3.640692   1.401992   0.000000
     4  C    1.366214   1.398958   2.409262   0.000000
     5  C    4.142398   2.425950   1.395447   2.776646   0.000000
     6  C    2.795018   1.506748   2.528233   2.525123   3.810076
     7  C    4.873442   2.512015   1.506844   3.790100   2.518248
     8  C    2.412287   2.433021   2.791246   1.396226   2.408227
     9  C    3.669156   2.804493   2.416862   2.408136   1.390643
    10  H    5.231427   3.409186   2.151961   3.865769   1.089134
    11  H    3.561902   2.158779   2.841045   3.255423   4.159787
    12  H    2.322080   2.159613   3.436325   2.624783   4.585205
    13  H    3.554214   2.158776   2.845621   3.251070   4.162688
    14  H    5.083531   2.828946   2.162744   4.146163   3.248796
    15  H    5.080670   2.826505   2.162720   4.144459   3.250875
    16  H    5.763026   3.425724   2.158180   4.566927   2.612203
    17  H    2.666286   3.417666   3.882200   2.158336   3.400017
    18  H    4.555110   3.892995   3.404261   3.394392   2.154939
    19  H    0.957922   3.169134   4.323683   1.916971   4.575544
                    6          7          8          9         10
     6  C    0.000000
     7  C    2.910662   0.000000
     8  C    3.813947   4.298090   0.000000
     9  C    4.311235   3.798221   1.389337   0.000000
    10  H    4.678840   2.715954   3.396131   2.154459   0.000000
    11  H    1.098378   2.860393   4.458098   4.815764   4.910131
    12  H    1.092389   3.993323   4.019107   4.816085   5.545452
    13  H    1.098441   2.870202   4.454754   4.815402   4.914658
    14  H    2.866543   1.098361   4.806896   4.443808   3.482387
    15  H    2.861271   1.098344   4.806883   4.445348   3.485832
    16  H    3.996630   1.094991   4.801829   4.000619   2.345839
    17  H    4.682673   5.389042   1.090975   2.157909   4.301379
    18  H    5.399734   4.671897   2.147892   1.088504   2.486046
    19  H    3.749377   5.661076   2.442243   3.821187   5.650301
                   11         12         13         14         15
    11  H    0.000000
    12  H    1.774728   0.000000
    13  H    1.765738   1.774638   0.000000
    14  H    2.402567   3.917118   2.991905   0.000000
    15  H    2.973766   3.914818   2.407026   1.763788   0.000000
    16  H    3.915525   5.072288   3.923588   1.775592   1.775670
    17  H    5.355458   4.693795   5.350598   5.876746   5.876701
    18  H    5.884232   5.883828   5.883817   5.343800   5.346078
    19  H    4.493631   3.251755   4.485722   5.919014   5.916794
                   16         17         18         19
    16  H    0.000000
    17  H    5.873756   0.000000
    18  H    4.681478   2.481385   0.000000
    19  H    6.479211   2.277608   4.537914   0.000000
 Stoichiometry    C8H10O
 Framework group  C1[X(C8H10O)]
 Deg. of freedom    51
 Full point group                 C1      NOp   1
 Largest Abelian subgroup         C1      NOp   1
 Largest concise Abelian subgroup C1      NOp   1
                         Standard orientation:                         
 ---------------------------------------------------------------------
 Center     Atomic      Atomic             Coordinates (Angstroms)
 Number     Number       Type             X           Y           Z
 ---------------------------------------------------------------------
      1          8           0        2.247426   -1.051966    0.000028
      2          6           0       -0.083586   -0.672762   -0.000228
      3          6           0       -1.163229    0.221639    0.000003
      4          6           0        1.216303   -0.155682   -0.000150
      5          6           0       -0.936068    1.598473    0.000131
      6          6           0       -0.318083   -2.161151    0.000093
      7          6           0       -2.570344   -0.317438    0.000061
      8          6           0        1.442564    1.222089   -0.000127
      9          6           0        0.362520    2.096023    0.000011
     10          1           0       -1.783884    2.282155    0.000331
     11          1           0       -0.900791   -2.467147   -0.879253
     12          1           0        0.624694   -2.712917   -0.006242
     13          1           0       -0.889473   -2.468497    0.886448
     14          1           0       -2.757528   -0.942405   -0.883555
     15          1           0       -2.755336   -0.947875    0.880224
     16          1           0       -3.303966    0.495453    0.003404
     17          1           0        2.463942    1.605514   -0.000089
     18          1           0        0.538114    3.170270    0.000103
     19          1           0        3.084359   -0.585965   -0.000362
 ---------------------------------------------------------------------
 Rotational constants (GHZ):           2.2454554           1.7827514           1.0061848
 Standard basis: 6-311++G(d,p) (5D, 7F)
 There are   277 symmetry adapted cartesian basis functions of A   symmetry.
 There are   268 symmetry adapted basis functions of A   symmetry.
   268 basis functions,   414 primitive gaussians,   277 cartesian basis functions
    33 alpha electrons       33 beta electrons
       nuclear repulsion energy       431.4329297417 Hartrees.
 NAtoms=   19 NActive=   19 NUniq=   19 SFac= 1.00D+00 NAtFMM=   60 NAOKFM=F Big=F
 Integral buffers will be    131072 words long.
 Raffenetti 2 integral format.
 Two-electron integral symmetry is turned on.
 R6APFD:  NTU= -4 IXU= 1 FactS= 1.050
 Nuclear repulsion after empirical dispersion term =      431.4222055290 Hartrees.
 One-electron integrals computed using PRISM.
 NBasis=   268 RedAO= T EigKep=  3.30D-06  NBF=   268
 NBsUse=   266 1.00D-06 EigRej=  9.80D-07 NBFU=   266
 Initial guess from the checkpoint file:  "OXY0068.chk"
 B after Tr=    -0.000000    0.000000   -0.000000
         Rot=    0.999999    0.000009    0.000004   -0.001182 Ang=   0.14 deg.
 Requested convergence on RMS density matrix=1.00D-08 within  32 cycles.
 Requested convergence on MAX density matrix=1.00D-06.
 Requested convergence on             energy=1.00D-06.
 No special actions if energy rises.
 SCF Done:  E(RM08HX) =  -386.106772539     A.U. after   10 cycles
            NFock= 10  Conv=0.84D-08     -V/T= 2.0049
 QCSCF skips out because SCF is already converged.
 R6APFD:  NTU= -4 IXU= 1 FactS= 1.050
 Calling FoFJK, ICntrl=      2127 FMM=F ISym2X=0 I1Cent= 0 IOpClX= 0 NMat=1 NMatS=1 NMatT=0.
 ***** Axes restored to original set *****
 -------------------------------------------------------------------
 Center     Atomic                   Forces (Hartrees/Bohr)
 Number     Number              X              Y              Z
 -------------------------------------------------------------------
      1        8          -0.000250236   -0.000423183    0.000003239
      2        6          -0.000039596   -0.000806537    0.000002294
      3        6           0.000031733   -0.000274654   -0.000001101
      4        6          -0.000331653    0.000509522    0.000003242
      5        6           0.000189740    0.000315049   -0.000002071
      6        6           0.000490641    0.000127439   -0.000008677
      7        6          -0.000146588    0.000387675    0.000007294
      8        6           0.000278988    0.000068613    0.000000668
      9        6          -0.000231521    0.000071259   -0.000001754
     10        1           0.000036693   -0.000111754    0.000000768
     11        1          -0.000092053    0.000074199    0.000016072
     12        1          -0.000128576    0.000105542    0.000003681
     13        1          -0.000091971    0.000072588   -0.000012676
     14        1           0.000020023   -0.000047992   -0.000013411
     15        1           0.000020575   -0.000051587    0.000007313
     16        1           0.000126128   -0.000155313    0.000000198
     17        1          -0.000114594   -0.000219248   -0.000000491
     18        1           0.000048427    0.000029409   -0.000000562
     19        1           0.000183840    0.000328972   -0.000004026
 -------------------------------------------------------------------
 Cartesian Forces:  Max     0.000806537 RMS     0.000203796

 GradGradGradGradGradGradGradGradGradGradGradGradGradGradGradGradGradGrad
 Berny optimization.
 Using GEDIIS/GDIIS optimizer.
 FormGI is forming the generalized inverse of G from B-inverse, IUseBI=4.
 Internal  Forces:  Max     0.000388987 RMS     0.000116443
 Search for a local minimum.
 Step number   3 out of a maximum of   98
 All quantities printed in internal units (Hartrees-Bohrs-Radians)
 Mixed Optimization -- En-DIIS/RFO-DIIS
 Swapping is turned off.
 Update second derivatives using D2CorX and points    1    2    3
 DE= -8.05D-05 DEPred=-7.63D-05 R= 1.05D+00
 TightC=F SS=  1.41D+00  RLast= 3.48D-02 DXNew= 6.6931D-01 1.0442D-01
 Trust test= 1.05D+00 RLast= 3.48D-02 DXMaxT set to 3.98D-01
 ITU=  1  1  0
     Eigenvalues ---    0.00828   0.00851   0.01603   0.01648   0.02155
     Eigenvalues ---    0.02156   0.02156   0.02157   0.02157   0.02158
     Eigenvalues ---    0.02161   0.02185   0.06577   0.07193   0.07218
     Eigenvalues ---    0.07294   0.14513   0.16000   0.16000   0.16000
     Eigenvalues ---    0.16000   0.16000   0.16000   0.16000   0.16277
     Eigenvalues ---    0.16726   0.22247   0.23371   0.23776   0.24993
     Eigenvalues ---    0.25179   0.25660   0.32918   0.33634   0.34116
     Eigenvalues ---    0.34226   0.34230   0.34243   0.34261   0.34434
     Eigenvalues ---    0.35192   0.35264   0.35317   0.41970   0.42849
     Eigenvalues ---    0.46431   0.46476   0.46506   0.47984   0.52490
     Eigenvalues ---    0.53876
 En-DIIS/RFO-DIIS/Sim-DIIS IScMMF=       -3 using points:     3    2
 RFO step:  Lambda=-5.25351885D-06.
 DidBck=F Rises=F RFO-DIIS coefs:    1.10231   -0.10231
 Iteration  1 RMS(Cart)=  0.00079456 RMS(Int)=  0.00000117
 Iteration  2 RMS(Cart)=  0.00000072 RMS(Int)=  0.00000105
 Variable       Old X    -DE/DX   Delta X   Delta X   Delta X     New X
                                 (Linear)    (Quad)   (Total)
    R1        2.58177   0.00000   0.00036  -0.00023   0.00012   2.58189
    R2        1.81021   0.00034   0.00002   0.00058   0.00059   1.81080
    R3        2.64938  -0.00000   0.00041  -0.00026   0.00016   2.64954
    R4        2.64365  -0.00010   0.00038  -0.00049  -0.00010   2.64354
    R5        2.84734  -0.00039  -0.00022  -0.00102  -0.00124   2.84610
    R6        2.63701   0.00030  -0.00040   0.00099   0.00060   2.63761
    R7        2.84752  -0.00008  -0.00011  -0.00010  -0.00021   2.84732
    R8        2.63848  -0.00013  -0.00027  -0.00012  -0.00039   2.63809
    R9        2.62793  -0.00011  -0.00026  -0.00007  -0.00033   2.62761
   R10        2.05816  -0.00009   0.00007  -0.00032  -0.00024   2.05792
   R11        2.07563   0.00001   0.00000   0.00005   0.00005   2.07568
   R12        2.06432  -0.00016  -0.00023  -0.00034  -0.00057   2.06375
   R13        2.07575   0.00001   0.00001   0.00005   0.00006   2.07581
   R14        2.07560   0.00004   0.00002   0.00012   0.00014   2.07574
   R15        2.07557   0.00003   0.00002   0.00011   0.00013   2.07569
   R16        2.06923  -0.00020   0.00000  -0.00061  -0.00061   2.06862
   R17        2.62547   0.00001   0.00006  -0.00005   0.00001   2.62548
   R18        2.06164  -0.00020  -0.00004  -0.00054  -0.00058   2.06106
   R19        2.05697   0.00003  -0.00002   0.00012   0.00010   2.05708
    A1        1.91799  -0.00030   0.00109  -0.00271  -0.00162   1.91637
    A2        2.07116  -0.00032  -0.00046  -0.00108  -0.00154   2.06962
    A3        2.10636   0.00027   0.00007   0.00112   0.00119   2.10755
    A4        2.10566   0.00005   0.00040  -0.00004   0.00035   2.10601
    A5        2.09912   0.00003   0.00028  -0.00002   0.00026   2.09938
    A6        2.08390   0.00009  -0.00017   0.00039   0.00022   2.08412
    A7        2.10017  -0.00012  -0.00011  -0.00037  -0.00048   2.09969
    A8        2.04744  -0.00019  -0.00047  -0.00061  -0.00108   2.04636
    A9        2.12358  -0.00018   0.00024  -0.00076  -0.00052   2.12306
   A10        2.11216   0.00037   0.00023   0.00137   0.00160   2.11376
   A11        2.10021   0.00012  -0.00013   0.00077   0.00064   2.10085
   A12        2.08592  -0.00013  -0.00060  -0.00045  -0.00105   2.08486
   A13        2.09706   0.00001   0.00073  -0.00032   0.00041   2.09747
   A14        1.93648  -0.00010  -0.00041  -0.00050  -0.00091   1.93557
   A15        1.94403   0.00002  -0.00004   0.00034   0.00030   1.94433
   A16        1.93641  -0.00010  -0.00041  -0.00050  -0.00091   1.93550
   A17        1.88862   0.00009   0.00082   0.00039   0.00121   1.88983
   A18        1.86721   0.00001  -0.00071  -0.00008  -0.00080   1.86641
   A19        1.88840   0.00009   0.00079   0.00037   0.00116   1.88956
[...]
 ,0.69414154,0.11633517,-0.17956282,0.00003028,-0.04227847,-0.17497355,
 -0.00002782,-0.01830378,0.08043277,0.00002404,0.01131006,0.70207237,-0
 .00002366,0.00004487,-0.04331272,-0.00000177,-0.00000270,-0.06759749,-
 0.00000649,0.00000773,0.00093476,-0.00000730,-0.00003243,0.15542032,-0
 .00156939,0.00596576,0.00000370,0.04551583,0.02536954,-0.00002306,-0.1
 2668193,0.02803034,0.00001383,-0.02821609,-0.04324149,-0.00000370,0.73
 441251,0.00782770,0.00133144,0.00001101,0.07816990,-0.03009629,-0.0000
 2453,-0.04978167,-0.32621674,-0.00000574,-0.04077512,-0.05888948,-0.00
 000644,-0.02658400,0.68238455,0.00000171,-0.00000068,-0.00190603,-0.00
 000756,-0.00000483,0.00642346,0.00000930,-0.00003081,-0.06212262,0.000
 00390,0.00000902,-0.00444016,-0.00009657,0.00005008,0.12563780,-0.0011
 7395,-0.00048410,0.00000833,-0.08982131,-0.00520768,0.00000761,0.00753
 449,0.02718076,-0.00002017,0.00283195,-0.03146513,0.00002161,-0.005726
 48,0.00288409,-0.00001248,0.58919521,0.00119868,-0.00220813,-0.0000141
 9,-0.00989834,-0.21968258,0.00005556,0.00746939,-0.02238104,0.00000711
 ,-0.00943583,-0.01641488,-0.00000412,0.00204952,0.00236057,-0.00000482
 ,-0.01855243,0.49088682,-0.00000994,-0.00004161,-0.00301133,-0.0000030
 4,-0.00004503,-0.06705947,-0.00001581,-0.00000482,0.00243185,-0.000010
 21,0.00004258,0.00579840,0.00002483,-0.00000866,0.00635233,0.00001487,
 0.00028543,0.52967059,-0.00075675,-0.00099904,-0.00000017,-0.02974880,
 -0.00838363,-0.00000475,-0.19764364,-0.05559789,-0.00000501,-0.0009786
 3,0.00394195,0.00000624,-0.00434766,-0.00796187,0.00000968,-0.00345341
 ,-0.00146404,0.00002664,0.51989879,0.00186335,0.00073967,-0.00000063,0
 .01190775,0.01430824,0.00001361,-0.04856042,-0.11309449,-0.00001708,0.
 00398737,-0.00263761,0.00000867,-0.03277835,-0.01572626,-0.00000846,0.
 00279108,-0.00284966,-0.00000752,-0.04367048,0.55941064,0.00000562,0.0
 0000099,-0.00008436,0.00000697,0.00001739,0.00351844,0.00005482,0.0000
 3715,-0.07039016,0.00000212,-0.00001018,0.00671470,-0.00000020,-0.0000
 1031,0.00632564,-0.00000078,-0.00000974,-0.00340189,-0.00009795,0.0000
 1466,0.52988948,-0.00546836,0.04949597,0.00000169,0.03199247,-0.028479
 12,0.00000461,-0.01485878,0.03411600,0.00000971,-0.13562312,-0.0725098
 6,0.00000023,-0.05992169,-0.01977015,0.00000773,-0.00440444,-0.0007816
 0,-0.00001195,-0.00056190,-0.00100206,-0.00001226,0.74078252,0.0087649
 4,-0.03006554,-0.00000628,-0.08056111,-0.01553139,0.00001871,0.0276195
 9,-0.06209932,-0.00001435,0.01769042,-0.31333852,0.00001914,0.03795017
 ,0.06707571,-0.00000609,0.00022889,0.00175095,-0.00003424,0.00026781,-
 0.00077118,0.00000350,0.01007778,0.67132116,-0.00001224,0.00000618,0.0
 0824308,-0.00000818,-0.00000450,0.00784252,-0.00000079,-0.00000336,-0.
 00459154,0.00001219,0.00001351,-0.06256619,0.00000969,0.00000327,0.007
 37390,0.00000639,0.00000296,0.00588108,0.00000119,0.00000083,-0.000912
 30,-0.00002398,0.00000228,0.11414311,-0.00274983,-0.01029802,-0.000010
 42,-0.07820266,0.00369266,0.00001909,0.03138838,-0.09093970,-0.0000132
 0,0.05390650,0.08955934,0.00001219,-0.30312978,-0.05087252,0.00003085,
 -0.00034414,-0.00039325,-0.00001327,0.00205609,0.00221672,0.00001899,-
 0.28339145,0.06898569,0.00001163,0.67847771,-0.00194307,-0.00295147,0.
 00000005,0.00329646,0.00097126,-0.00000911,-0.03163304,-0.02106739,-0.
 00000062,0.02531192,-0.03440318,-0.00000186,-0.12434950,-0.17084919,0.
 00001403,-0.00107732,-0.00049210,0.00002460,0.00153725,-0.00390541,0.0
 0000675,0.14109761,-0.19516995,-0.00001389,0.00432705,0.74306870,0.000
 00118,0.00000148,0.00819571,0.00000888,0.00000003,-0.00365596,-0.00000
 865,0.00000589,0.00619766,-0.00000555,-0.00000676,0.00156830,0.0000319
 5,0.00000734,-0.06024274,0.00000101,-0.00000223,-0.00061259,0.00001166
 ,-0.00001061,0.00778611,0.00002328,-0.00001266,-0.05402917,-0.00006227
 ,0.00001347,0.12997278,0.00024893,0.00013696,-0.00000001,0.00146712,-0
 .00099887,0.00000155,0.00228135,-0.00266287,0.00000103,-0.00001135,-0.
 00081943,-0.00000055,-0.24953645,0.12800412,0.00004773,0.00022891,-0.0
 0020664,-0.00000160,0.00094817,-0.00130163,-0.00000133,-0.00326144,-0.
 00398292,0.00000186,-0.01776025,0.01787243,0.00000265,0.26549840,0.000
 16963,0.00034512,0.00000032,-0.00178424,-0.00518519,0.00000044,0.02688
 272,-0.01242830,-0.00000510,-0.00135505,-0.00130742,-0.00000017,0.1269
 4591,-0.14101360,-0.00002638,0.00159000,-0.00021142,-0.00000305,0.0021
 4588,0.00068710,-0.00000615,-0.00305320,-0.00005526,-0.00000029,-0.013
 06258,0.01114105,0.00000242,-0.13610945,0.14776833,-0.00000009,0.00000
 021,-0.00073250,-0.00000179,-0.00000095,0.00631610,0.00001034,-0.00000
 083,0.00238640,0.00000105,0.00000138,-0.00065097,0.00004810,-0.0000273
 0,-0.03355856,0.00000060,0.00000022,0.00016699,-0.00001059,0.00000623,
 -0.00442996,0.00000178,0.00000004,0.00694161,0.00000036,-0.00000312,0.
 00172727,-0.00005135,0.00002943,0.02477926,-0.00013396,-0.00074042,0.0
 0057027,-0.00163073,-0.00364518,0.00033394,-0.00143752,0.00096225,0.00
 026902,0.00025907,0.00055386,-0.00054554,0.00011167,-0.00030631,-0.000
 22715,-0.11026570,-0.03871568,-0.10718061,0.00072235,0.00124744,0.0005
 8704,-0.00027642,-0.00061386,-0.00006462,-0.00012043,0.00032699,0.0000
 4293,0.00000900,-0.00003097,0.00000807,0.11760841,-0.00050903,0.001083
 14,-0.00074681,-0.01777885,-0.01390161,-0.02594038,-0.00129442,0.00063
 733,0.00057765,0.00295862,-0.00408335,-0.00026308,-0.00050702,-0.00014
 095,0.00109995,-0.04056417,-0.06903665,-0.06797281,-0.00005518,0.00000
 590,-0.00110740,-0.00063221,0.00002442,0.00142055,0.00013679,-0.000376
 69,-0.00026716,0.00007638,-0.00000574,-0.00002047,0.04570352,0.0793811
 1,-0.00011507,0.00008216,-0.00003702,0.00211185,-0.00034244,0.00325041
 ,-0.00144449,-0.00018480,0.00085230,0.00088584,0.00060211,-0.00051229,
 0.00012701,-0.00012412,-0.00021802,-0.10674943,-0.06673955,-0.21321876
 ,-0.00022974,0.00069224,0.00022437,0.00018668,-0.00006149,-0.00017160,
 0.00002330,-0.00003001,-0.00005736,0.00001278,-0.00007633,0.00000654,0
 .11710962,0.07290067,0.23011985,-0.00320132,-0.00385227,-0.00001726,0.
 00510567,-0.00087951,-0.00004741,0.00003119,-0.00156560,0.00001177,-0.
 00037077,0.00000641,-0.00000881,0.00018575,-0.00008550,0.00000556,-0.2
 7711008,0.10763509,0.00145434,-0.00029076,0.00012806,0.00000017,-0.000
 02436,0.00017326,0.00000595,0.00002254,0.00004853,-0.00000108,0.000040
 62,-0.00008855,-0.00000097,-0.01196717,0.00525606,0.00152420,0.2990607
 9,-0.00284073,-0.00025384,-0.00001025,0.03121889,-0.01223654,-0.000184
 23,-0.00228494,-0.00634958,-0.00000718,0.00347195,-0.00110423,0.000002
 30,0.00168076,-0.00012447,0.00001113,0.10174608,-0.09356006,-0.0006704
 4,-0.00097659,-0.00014969,-0.00000038,0.00011687,0.00035793,0.00000444
 ,-0.00008444,-0.00007112,-0.00000081,-0.00003737,-0.00055411,0.0000010
 8,-0.00993487,0.00381448,0.00132499,-0.11183779,0.10529750,-0.00001220
 ,0.00000512,-0.00017684,-0.00004393,0.00004163,-0.00233449,0.00000444,
 0.00000670,0.00073606,0.00002039,-0.00002039,0.00079124,-0.00000521,0.
 00000465,0.00043968,0.00143713,-0.00071483,-0.04628904,-0.00000901,0.0
 0000426,-0.00065387,-0.00000160,0.00000776,0.00003200,0.00000199,-0.00
 000488,-0.00013435,0.00000011,0.00000103,-0.00004190,-0.02383823,0.011
 86559,0.00116426,-0.00157676,0.00071742,0.04510733,-0.00012026,-0.0007
 1837,-0.00057985,-0.00163483,-0.00363798,-0.00028873,-0.00143546,0.000
 96830,-0.00025371,0.00026186,0.00051804,0.00053088,0.00010651,-0.00030
 700,0.00022974,-0.10747882,-0.03787430,0.10571985,0.00075221,0.0012251
 0,-0.00057470,-0.00027809,-0.00060426,0.00005793,-0.00011598,0.0003232
 8,-0.00004297,0.00000814,-0.00003031,-0.00000859,0.00764280,0.00570240
 ,-0.01392508,-0.01172452,-0.00995148,0.02402542,0.11453364,-0.00053522
 ,0.00108776,0.00075436,-0.01742593,-0.01395054,0.02613898,-0.00130066,
 0.00061604,-0.00057785,0.00296487,-0.00403500,0.00025377,-0.00051002,-
 0.00014794,-0.00111531,-0.03975604,-0.06902170,0.06846645,-0.00006172,
 0.00000873,0.00110059,-0.00061130,0.00002601,-0.00142929,0.00013904,-0
 .00038234,0.00026811,0.00007655,-0.00000759,0.00002053,0.00559484,0.00
 268938,-0.00792859,0.00512235,0.00381768,-0.01192063,0.04481088,0.0793
 7390,0.00013150,-0.00006793,-0.00003360,-0.00205721,0.00041582,0.00329
 671,0.00145076,0.00016825,0.00084845,-0.00089893,-0.00061603,-0.000511
 29,-0.00012756,0.00013449,-0.00022049,0.10529686,0.06712919,-0.2157188
 2,0.00022159,-0.00068883,0.00020838,-0.00018237,0.00007812,-0.00017868
 ,-0.00002088,0.00001985,-0.00005712,-0.00001231,0.00007642,0.00000714,
 0.01354608,0.00785751,-0.02130563,-0.00135409,-0.00118935,0.00086434,-
 0.11550374,-0.07344657,0.23288018,0.00002583,0.00015663,-0.00001800,-0
 .00025527,-0.00045098,0.00059377,-0.00284123,-0.01785605,-0.02460735,0
 .00056150,-0.00004906,0.00116854,-0.00280359,0.00018701,0.00012541,-0.
 00030907,-0.00052910,-0.00130330,-0.04854056,-0.01522346,-0.02335864,-
 0.00026109,-0.00043939,-0.00021876,-0.00019914,-0.00047267,0.00111214,
 0.00006883,-0.00019591,-0.00030068,-0.00082670,0.00128230,0.00042306,0
 .00010997,-0.00004628,0.00023403,0.00014254,0.00029182,0.00016671,0.05
 281447,-0.00018527,0.00015237,0.00000857,0.00158825,-0.00118005,0.0004
 1681,-0.00426617,-0.01088593,-0.01024344,-0.00006632,-0.00042122,0.000
 25368,-0.00213156,0.00020534,-0.00015642,0.00082427,0.00107098,0.00013
 782,-0.01321902,-0.13017645,-0.12409106,0.00008402,0.00001077,-0.00004
 615,-0.00041934,-0.00049634,0.00099339,-0.00006805,0.00020314,-0.00066
 104,0.00036947,-0.00014834,-0.00042592,-0.00000777,0.00004895,0.000115
 66,-0.00033548,0.00011713,0.00010365,0.01922753,0.14215370,-0.00016498
 ,0.00014104,-0.00000023,0.00004455,-0.00129265,0.00082192,-0.00078897,
 0.00169174,0.00287063,0.00013787,0.00001222,-0.00019251,0.00022698,0.0
 0090354,-0.00043227,0.00081616,-0.00001434,0.00020940,-0.02200930,-0.1
 2330926,-0.21467434,0.00002996,-0.00008533,-0.00004627,-0.00018240,0.0
 0013148,-0.00025176,0.00001426,0.00006846,0.00009917,-0.00055533,0.000
 25888,0.00028543,0.00020888,0.00025299,0.00020839,-0.00004147,-0.00017
 984,-0.00062336,0.02404667,0.13505145,0.23190989,0.00002607,0.00015849
 ,0.00001772,-0.00024431,-0.00045320,-0.00058121,-0.00273714,-0.0180219
 6,0.02450551,0.00056556,-0.00005050,-0.00115852,-0.00283955,0.00017538
 ,-0.00011906,-0.00029724,-0.00052160,0.00130716,-0.04847680,-0.0149505
 3,0.02272202,-0.00026058,-0.00043626,0.00021898,-0.00019139,-0.0004820
 3,-0.00111175,0.00006842,-0.00019698,0.00029886,0.00012934,0.00029626,
 -0.00015976,0.00010824,-0.00004752,-0.00023605,-0.00082593,0.00127063,
 -0.00043725,-0.00042639,0.00228178,-0.00230313,0.05272579,-0.00018623,
 0.00015356,-0.00000795,0.00159037,-0.00116698,-0.00042634,-0.00421624,
 -0.01094259,0.01018616,-0.00006611,-0.00042123,-0.00025499,-0.00214134
 ,0.00020395,0.00017172,0.00082492,0.00106305,-0.00014470,-0.01296968,-
 0.13179396,0.12466377,0.00008648,0.00001184,0.00004560,-0.00042037,-0.
 00049996,-0.00098678,-0.00006837,0.00020803,0.00065672,-0.00033137,0.0
 0011257,-0.00010588,-0.00000599,0.00005293,-0.00011640,0.00035558,-0.0
 0013824,0.00042920,0.00221612,0.01098793,-0.01561159,0.01895921,0.1438
 9981,0.00016367,-0.00014149,-0.00000039,-0.00004072,0.00128940,0.00082
 482,0.00076147,-0.00173039,0.00284330,-0.00013889,-0.00001098,-0.00019
 151,-0.00022654,-0.00089900,-0.00043288,-0.00081450,0.00001518,0.00024
 119,0.02143079,0.12390353,-0.21322155,-0.00002386,0.00008302,-0.000045
 09,0.00016951,-0.00013477,-0.00025230,-0.00001614,-0.00006612,0.000102
 21,0.00003783,0.00017586,-0.00064348,-0.00020888,-0.00025493,0.0001974
 2,0.00055494,-0.00024860,0.00027697,0.00225345,0.01581412,-0.02131668,
 -0.02335119,-0.13568624,0.23031578,-0.00065201,-0.00038104,-0.00000048
 ,-0.00425005,-0.00398213,0.00000492,-0.02159142,0.02125953,0.00008989,
 -0.00011605,0.00180294,-0.00000480,0.00141406,0.00255197,-0.00000733,0
 .00013695,-0.00086042,-0.00000059,-0.18968426,0.13280720,0.00064473,0.
 00021833,-0.00041967,0.00000082,-0.00015239,-0.00023390,-0.00000370,0.
 00021094,-0.00162175,0.00000479,0.00009855,-0.00006636,0.00014121,0.00
 006857,0.00015874,0.00000064,0.00009411,-0.00006508,-0.00013990,0.0028
 9698,-0.00350209,0.00053037,0.00283484,-0.00345122,-0.00055998,0.20852
 402,-0.00011887,-0.00013407,0.00000032,-0.00279927,-0.00193975,-0.0000
 0287,-0.01245953,0.01085710,0.00006350,-0.00046627,0.00066111,-0.00000
 552,-0.00164760,0.00071393,0.00000065,0.00044108,-0.00056903,-0.000008
 80,0.13702976,-0.17344305,-0.00061013,0.00002008,-0.00013428,0.0000006
 8,-0.00011648,0.00032886,0.00000420,-0.00014195,-0.00048657,-0.0000022
 4,-0.00005660,0.00015108,0.00035425,0.00014166,0.00021574,0.00000179,-
 0.00006527,0.00014867,-0.00034784,0.01204839,-0.01152931,0.00195262,0.
 01216659,-0.01161817,-0.00207973,-0.14399115,0.18667364,-0.00000094,0.
 00000077,-0.00009320,0.00000041,-0.00000745,0.00124328,-0.00003127,0.0
 0000202,-0.00189553,-0.00000496,-0.00000312,0.00049880,-0.00000069,-0.
 00000204,-0.00025317,-0.00000549,0.00000201,-0.00065674,0.00066374,-0.
 00060219,-0.04595014,0.00000061,0.00000336,0.00000913,0.00000001,0.000
 00074,-0.00025110,0.00000212,0.00000478,0.00042928,0.00001211,0.000264
 00,0.00019494,0.00000079,-0.00000107,0.00032728,-0.00000684,-0.0002600
 4,0.00020258,0.01977481,-0.01713987,0.00104306,-0.01970278,0.01705767,
 0.00121303,-0.00070128,0.00068009,0.04397883,0.00320283,0.00016517,-0.
 00000050,0.00173407,-0.00017045,0.00000035,0.00036609,0.00057812,-0.00
 000014,-0.00282858,0.00322576,-0.00000136,-0.00223157,0.00470179,0.000
 00035,-0.00008933,0.00022592,0.00000101,-0.00000704,-0.00003285,0.0000
 0097,-0.27539200,-0.10873769,0.00000106,-0.01858911,-0.01475201,-0.000
 00085,-0.00107060,-0.00071706,0.00000040,0.00001884,-0.00007787,0.0000
 1440,0.00006524,-0.00006683,-0.00000029,0.00001746,-0.00007804,-0.0000
 1470,0.00000961,-0.00004890,-0.00000949,0.00000944,-0.00004939,0.00000
 910,0.00005421,0.00003121,-0.00000029,0.29405230,-0.00095479,0.0025586
 3,0.00000023,0.00064993,-0.00574514,0.00000108,0.00123755,-0.00150271,
 -0.00000026,-0.02911476,-0.00756987,0.00000129,0.00360572,-0.00094456,
 -0.00000083,-0.00133872,-0.00003783,-0.00000297,-0.00002968,0.00015801
 ,0.00000035,-0.10856699,-0.11250236,-0.00000072,0.01592482,0.01215987,
 0.00000080,0.00085989,0.00038639,-0.00000041,-0.00009414,-0.00032264,0
 .00001941,0.00000780,0.00004839,-0.00000048,-0.00009441,-0.00031786,-0
 .00001756,0.00004022,0.00001307,0.00001661,0.00004037,0.00001326,-0.00
 001677,-0.00008942,0.00000174,0.00000014,0.11680539,0.11455175,-0.0000
 0073,-0.00000016,-0.00383072,0.00000038,0.00000025,0.00516574,0.000000
 64,0.00000179,-0.00073229,-0.00000027,-0.00000404,0.00288234,-0.000000
 29,-0.00000223,0.00695059,-0.00000140,0.00000011,-0.00013968,-0.000002
 89,0.00000048,-0.00077521,-0.00000396,0.00000272,-0.03030900,0.0000048
 4,-0.00000074,0.00151621,0.00000038,-0.00000003,0.00046183,0.00001596,
 -0.00000287,0.00005860,0.00000007,-0.00000046,0.00002274,-0.00001359,0
 .00000485,0.00005965,-0.00003766,-0.00009422,0.00004860,0.00003694,0.0
 0009415,0.00004865,0.00000040,-0.00000106,0.00004297,-0.00000047,0.000
 00126,0.02174778,-0.00025150,0.00173570,-0.00000017,-0.00144590,0.0002
 6425,0.00000056,-0.00481513,-0.00234936,0.00000047,-0.00392351,0.00241
 405,0.00000080,0.00427594,-0.02824461,-0.00000196,0.00015325,-0.000024
 57,-0.00000064,0.00032372,-0.00109892,0.00000113,0.00597869,0.02642709
 ,0.00000123,-0.05971244,-0.01891267,0.00000311,0.00048872,0.00044633,-
 0.00000057,-0.00000733,0.00004118,0.00001409,-0.00000867,-0.00007271,-
 0.00000003,-0.00000747,0.00004063,-0.00001390,-0.00021307,-0.00015444,
 -0.00000686,-0.00021511,-0.00015545,0.00000637,0.00000904,0.00007291,0
 .00000015,0.00061974,-0.00036769,-0.00000024,0.05849553,0.00030227,-0.
 00123617,0.00000008,0.00008339,0.00066107,0.00000085,-0.00295324,0.001
 07697,-0.00000021,0.00303423,0.00115303,-0.00000037,0.00257151,-0.0094
 8855,-0.00000127,0.00008133,-0.00001439,-0.00000156,0.00030841,-0.0005
 0946,0.00000035,-0.00421800,-0.01263895,-0.00000074,-0.01852175,-0.336
 24525,-0.00001001,-0.00044541,0.00058884,0.00000034,-0.00003788,0.0000
 1728,0.00000664,0.00002188,0.00001052,0.00000038,-0.00003738,0.0000173
 9,-0.00000596,-0.00014160,-0.00010906,0.00000553,-0.00014253,-0.000109
 36,-0.00000585,0.00000830,0.00003705,0.00000012,0.00039961,0.00058880,
 0.00000013,0.01992627,0.35617783,0.00000091,-0.00000073,0.00008596,0.0
 0000176,-0.00000060,-0.00101688,0.00000230,0.00000230,0.00689704,-0.00
 000008,-0.00000109,0.00726741,-0.00000069,0.00000170,0.00340324,0.0000
 0134,0.00000106,-0.00070580,-0.00000142,0.00000002,-0.00007621,-0.0000
 0235,-0.00000210,0.00274423,0.00000457,-0.00001232,-0.03582780,-0.0000
 0105,0.00000034,-0.00397693,0.00000809,-0.00010333,0.00002372,-0.00000
 086,-0.00000090,-0.00001356,-0.00000883,0.00010484,0.00002388,0.000004
 55,-0.00000150,0.00005016,-0.00000516,0.00000034,0.00004974,0.00000030
 ,-0.00000007,-0.00002344,0.00000015,0.00000013,-0.00397027,-0.00000337
 ,0.00001144,0.02503058,-0.36433831,-0.21110474,0.00024334,-0.00203463,
 0.00475225,0.00000190,-0.00101766,-0.00168459,-0.00000266,-0.03737696,
 -0.02094986,0.00002202,0.00098190,0.00018678,0.00000017,0.00039318,0.0
 0067920,0.00000225,-0.00021112,0.00044463,0.00000129,0.00501171,-0.002
 39049,-0.00000035,-0.00119225,-0.00028533,-0.00000198,0.00007253,0.000
 06557,0.00000029,0.00006594,0.00003161,0.00004953,-0.00010094,-0.00021
 175,-0.00000082,0.00006209,0.00003240,-0.00005067,0.00004636,0.0000290
 8,0.00000621,0.00004672,0.00002906,-0.00000647,-0.00011443,-0.00008867
 ,-0.00000020,0.00005839,0.00147890,0.00000189,0.00025551,-0.00023943,-
 0.00000017,0.39939196,-0.26206301,-0.21829898,0.00020991,0.00489900,-0
 .00348193,0.00000222,0.00009608,0.00142504,0.00000104,0.02573946,0.014
 84307,-0.00001976,-0.00027836,-0.00063748,-0.00000067,-0.00014693,-0.0
 0065290,-0.00001068,0.00015777,-0.00026106,-0.00000014,0.00452966,0.00
 172795,-0.00000134,0.00014635,-0.00075935,-0.00000013,-0.00018338,-0.0
 0007281,0.00000019,-0.00025110,0.00009928,0.00003667,-0.00021813,0.000
 73953,0.00000563,-0.00024734,0.00009851,-0.00003245,-0.00004553,-0.000
 01667,0.00000645,-0.00004561,-0.00001646,-0.00000625,0.00007555,0.0000
 6530,0.00000008,-0.00140188,-0.00153694,0.00000007,0.00001198,0.000022
 41,0.00000047,0.22922539,0.20671348,0.00028679,0.00018924,-0.00140941,
 0.00000324,-0.00000638,0.00155446,-0.00000554,0.00000470,0.00065583,-0
 .00001430,-0.00000230,-0.00190112,-0.00000157,-0.00000569,0.00092030,-
 0.00000763,0.00000497,0.00006230,-0.00000072,0.00000005,-0.00009714,-0
 .00000395,0.00000389,-0.00036084,0.00000513,0.00000033,-0.00159175,-0.
 00000013,-0.00000002,-0.00003297,-0.00012948,0.00000365,-0.00001626,0.
 00000438,0.00000563,-0.00024668,0.00012931,-0.00000576,-0.00001931,-0.
 00005876,-0.00003551,-0.00000923,0.00005866,0.00003553,-0.00000922,0.,
 0.00000016,-0.00005987,0.00000031,-0.00000130,0.00075148,-0.00000016,0
 .00000011,0.00003493,-0.00026558,-0.00019131,0.00177451\\-0.00015748,0
 .00005449,-0.00000529,0.00011962,0.00001942,-0.00000226,-0.00006991,0.
 00014631,-0.00000184,0.00018023,-0.00008433,0.00000467,-0.00003431,-0.
 00005553,0.00000336,-0.00001904,-0.00007707,-0.00000038,-0.00003368,-0
 .00004223,-0.00000268,-0.00007956,0.00006206,-0.00000129,0.00008389,-0
 .00009731,-0.00000002,0.00000449,0.00000733,-0.00000049,0.00000216,0.0
 0001267,0.00000964,0.00001604,0.00001319,-0.00000019,0.00000148,0.0000
 1305,-0.00000908,0.00000974,-0.00000190,0.00001756,0.00000939,-0.00000
 016,-0.00001363,0.00000376,0.00002414,-0.00000135,-0.00000790,0.000007
 63,-0.00000015,0.00000535,0.00001277,0.00000019,-0.00003428,-0.0000145
 4,0.00000322\\\@


 WHEN IT COMES TO CASH FLOW, IT SEEMS LIKE THE TIDE IS ALWAYS GOING OUT.
 Job cpu time:       0 days  1 hours 27 minutes 30.0 seconds.
 Elapsed time:       0 days  0 hours  5 minutes 29.9 seconds.
 File lengths (MBytes):  RWF=    126 Int=      0 D2E=      0 Chk=      7 Scr=      1
 Normal termination of Gaussian 16 at Fri Oct 10 00:45:26 2025.
