 Entering Gaussian System, Link 0=g16
 Input=PAAC0139.gjf
 Output=PAAC0139.log
 Initial command:
 /usr/local/g16/l1.exe "/dados_01/scratch/Gau-2164614.inp" -scrdir="/dados_01/scratch/"
 Entering Link 1 = /usr/local/g16/l1.exe PID=   2164615.
  
 Copyright (c) 1988-2017, Gaussian, Inc.  All Rights Reserved.
  
 This is part of the Gaussian(R) 16 program.  It is based on
 the Gaussian(R) 09 system (copyright 2009, Gaussian, Inc.),
 the Gaussian(R) 03 system (copyright 2003, Gaussian, Inc.),
 the Gaussian(R) 98 system (copyright 1998, Gaussian, Inc.),
 the Gaussian(R) 94 system (copyright 1995, Gaussian, Inc.),
 the Gaussian 92(TM) system (copyright 1992, Gaussian, Inc.),
 the Gaussian 90(TM) system (copyright 1990, Gaussian, Inc.),
 the Gaussian 88(TM) system (copyright 1988, Gaussian, Inc.),
 the Gaussian 86(TM) system (copyright 1986, Carnegie Mellon
 University), and the Gaussian 82(TM) system (copyright 1983,
 Carnegie Mellon University). Gaussian is a federally registered
 trademark of Gaussian, Inc.
  
 This software contains proprietary and confidential information,
 including trade secrets, belonging to Gaussian, Inc.
  
 This software is provided under written license and may be
 used, copied, transmitted, or stored only in accord with that
 written license.
  
 The following legend is applicable only to US Government
 contracts under FAR:
  
                    RESTRICTED RIGHTS LEGEND
  
 Use, reproduction and disclosure by the US Government is
 subject to restrictions as set forth in subparagraphs (a)
 and (c) of the Commercial Computer Software - Restricted
 Rights clause in FAR 52.227-19.
  
 Gaussian, Inc.
 340 Quinnipiac St., Bldg. 40, Wallingford CT 06492
  
  
 ---------------------------------------------------------------
 Warning -- This program may not be used in any manner that
 competes with the business of Gaussian, Inc. or will provide
 assistance to any competitor of Gaussian, Inc.  The licensee
 of this program is prohibited from giving any competitor of
 Gaussian, Inc. access to this program.  By using this program,
 the user acknowledges that Gaussian, Inc. is engaged in the
 business of creating and licensing software in the field of
 computational chemistry and represents and warrants to the
 licensee that it is not a competitor of Gaussian, Inc. and that
 it will not use this program in any manner prohibited above.
 ---------------------------------------------------------------
  

 Cite this work as:
 Gaussian 16, Revision B.01,
 M. J. Frisch, G. W. Trucks, H. B. Schlegel, G. E. Scuseria, 
 M. A. Robb, J. R. Cheeseman, G. Scalmani, V. Barone, 
 G. A. Petersson, H. Nakatsuji, X. Li, M. Caricato, A. V. Marenich, 
 J. Bloino, B. G. Janesko, R. Gomperts, B. Mennucci, H. P. Hratchian, 
 J. V. Ortiz, A. F. Izmaylov, J. L. Sonnenberg, D. Williams-Young, 
 F. Ding, F. Lipparini, F. Egidi, J. Goings, B. Peng, A. Petrone, 
 T. Henderson, D. Ranasinghe, V. G. Zakrzewski, J. Gao, N. Rega, 
 G. Zheng, W. Liang, M. Hada, M. Ehara, K. Toyota, R. Fukuda, 
 J. Hasegawa, M. Ishida, T. Nakajima, Y. Honda, O. Kitao, H. Nakai, 
 T. Vreven, K. Throssell, J. A. Montgomery, Jr., J. E. Peralta, 
 F. Ogliaro, M. J. Bearpark, J. J. Heyd, E. N. Brothers, K. N. Kudin, 
 V. N. Staroverov, T. A. Keith, R. Kobayashi, J. Normand, 
 K. Raghavachari, A. P. Rendell, J. C. Burant, S. S. Iyengar, 
 J. Tomasi, M. Cossi, J. M. Millam, M. Klene, C. Adamo, R. Cammi, 
 J. W. Ochterski, R. L. Martin, K. Morokuma, O. Farkas, 
 J. B. Foresman, and D. J. Fox, Gaussian, Inc., Wallingford CT, 2016.
 
 ******************************************
 Gaussian 16:  ES64L-G16RevB.01 20-Dec-2017
                21-Sep-2025 
 ******************************************
 %nprocs=16
 Will use up to   16 processors via shared memory.
 %mem=40GB
 %chk=PAAC0139.chk
 ----------------------------------------------------------------------
 # opt freq=noraman M08HX/6-311++G** scf=xqc Empiricaldispersion=pfd In
 t(Grid=ultraFine)
 ----------------------------------------------------------------------
 1/18=20,19=15,26=4,38=1/1,3;
 2/9=110,12=2,17=6,18=5,40=1/2;
 3/5=4,6=6,7=1111,11=2,25=1,30=1,71=1,74=-74,75=-5,124=11/1,2,3;
 4//1;
 5/5=2,8=3,13=1,38=5/2,8;
 6/7=2,8=2,9=2,10=2,28=1/1;
 7//1,2,3,16;
 1/18=20,19=15,26=4/3(2);
 2/9=110/2;
 99//99;
 2/9=110/2;
 3/5=4,6=6,7=1111,11=2,25=1,30=1,71=1,74=-74,75=-5,124=11/1,2,3;
 4/5=5,16=3,69=1/1;
 5/5=2,8=3,13=1,38=5/2,8;
 7//1,2,3,16;
 1/18=20,19=15,26=4/3(-5);
 2/9=110/2;
 6/7=2,8=2,9=2,10=2,19=2,28=1/1;
 99/9=1/99;
 --------
 PAAC0139
 --------
 Symbolic Z-matrix:
 Charge =  0 Multiplicity = 1
 O                    -9.5605    0.6695   -0.0838 
 O                    -8.5332   -1.3534    0.0164 
 C                     1.77     -0.4356    0.0582 
 C                     0.5235    0.4509    0.083 
 C                     3.0463    0.4092    0.0877 
 C                    -0.7911   -0.3346    0.0414 
 C                     4.2949   -0.4722    0.0265 
 C                    -2.0721    0.505    -0.0209 
 C                     5.605     0.3187    0.0913 
 C                    -3.3539   -0.3321   -0.0108 
 C                     6.893    -0.5009   -0.0508 
 C                    -4.5986    0.5561    0.0054 
 C                     8.1645    0.3517   -0.0404 
 C                    -5.9165   -0.2275   -0.0233 
 C                     9.4506   -0.4776   -0.093 
 C                    -7.173     0.6435   -0.0191 
 C                     10.7192   0.3603   -0.0527 
 C                    -8.4681   -0.131    -0.0149 
 H                     1.7548   -1.1149    0.9189 
 H                     1.7587   -1.0564   -0.8456 
 H                     0.536     1.0745    0.9855 
 H                     0.5519    1.1356   -0.7738 
 H                     3.0499    1.1058   -0.7593 
 H                     3.0675    1.0123    1.0033 
 H                    -0.8365   -0.9824    0.9261 
 H                    -0.7737   -1.003    -0.829 
 H                     4.2759   -1.1927    0.8534 
 H                     4.2778   -1.0564   -0.9018 
 H                    -2.0493    1.1259   -0.9248 
 H                    -2.0825    1.1921    0.8344 
 H                     5.5908    1.0785   -0.7008 
 H                     5.6387    0.8661    1.0419 
 H                    -3.3611   -0.9849    0.8701 
 H                    -3.3734   -0.9811   -0.8944 
 H                     6.9379   -1.2311    0.7664 
 H                     6.8533   -1.0741   -0.9851 
 H                    -4.5713    1.2318   -0.8586 
 H                    -4.5806    1.1888    0.9014 
 H                     8.1435    1.0427   -0.8919 
 H                     8.1753    0.9681    0.867 
 H                    -5.946    -0.9033    0.8411 
 H                    -5.9313   -0.8708   -0.9125 
 H                     9.4539   -1.0823   -1.0077 
 H                     9.465    -1.1782    0.7506 
 H                    -7.1671    1.2837    0.8703 
 H                    -7.1683    1.2834   -0.9089 
 H                     10.7586   1.0487   -0.9027 
 H                     11.6026  -0.2843   -0.094 
 H                     10.7686   0.9489    0.8687 
 H                    -10.3937   0.1519   -0.0956 
 

 GradGradGradGradGradGradGradGradGradGradGradGradGradGradGradGradGradGrad
 Berny optimization.
 Initialization pass.
                           ----------------------------
                           !    Initial Parameters    !
                           ! (Angstroms and Degrees)  !
 --------------------------                            --------------------------
 ! Name  Definition              Value          Derivative Info.                !
 --------------------------------------------------------------------------------
 ! R1    R(1,18)                 1.3561         estimate D2E/DX2                !
 ! R2    R(1,50)                 0.981          estimate D2E/DX2                !
 ! R3    R(2,18)                 1.2245         estimate D2E/DX2                !
 ! R4    R(3,4)                  1.5298         estimate D2E/DX2                !
 ! R5    R(3,5)                  1.5308         estimate D2E/DX2                !
 ! R6    R(3,19)                 1.0966         estimate D2E/DX2                !
 ! R7    R(3,20)                 1.0965         estimate D2E/DX2                !
 ! R8    R(4,6)                  1.532          estimate D2E/DX2                !
 ! R9    R(4,21)                 1.0971         estimate D2E/DX2                !
 ! R10   R(4,22)                 1.0971         estimate D2E/DX2                !
 ! R11   R(5,7)                  1.5296         estimate D2E/DX2                !
 ! R12   R(5,23)                 1.0967         estimate D2E/DX2                !
 ! R13   R(5,24)                 1.0966         estimate D2E/DX2                !
 ! R14   R(6,8)                  1.5329         estimate D2E/DX2                !
 ! R15   R(6,25)                 1.0975         estimate D2E/DX2                !
 ! R16   R(6,26)                 1.0976         estimate D2E/DX2                !
 ! R17   R(7,9)                  1.5317         estimate D2E/DX2                !
 ! R18   R(7,27)                 1.0969         estimate D2E/DX2                !
 ! R19   R(7,28)                 1.097          estimate D2E/DX2                !
 ! R20   R(8,10)                 1.531          estimate D2E/DX2                !
 ! R21   R(8,29)                 1.0968         estimate D2E/DX2                !
 ! R22   R(8,30)                 1.0972         estimate D2E/DX2                !
 ! R23   R(9,11)                 1.5333         estimate D2E/DX2                !
 ! R24   R(9,31)                 1.0977         estimate D2E/DX2                !
 ! R25   R(9,32)                 1.0975         estimate D2E/DX2                !
 ! R26   R(10,12)                1.5292         estimate D2E/DX2                !
 ! R27   R(10,33)                1.0964         estimate D2E/DX2                !
 ! R28   R(10,34)                1.0965         estimate D2E/DX2                !
 ! R29   R(11,13)                1.5309         estimate D2E/DX2                !
 ! R30   R(11,35)                1.0968         estimate D2E/DX2                !
 ! R31   R(11,36)                1.0968         estimate D2E/DX2                !
 ! R32   R(12,14)                1.5335         estimate D2E/DX2                !
 ! R33   R(12,37)                1.0972         estimate D2E/DX2                !
 ! R34   R(12,38)                1.097          estimate D2E/DX2                !
 ! R35   R(13,15)                1.5312         estimate D2E/DX2                !
 ! R36   R(13,39)                1.0968         estimate D2E/DX2                !
 ! R37   R(13,40)                1.097          estimate D2E/DX2                !
 ! R38   R(14,16)                1.5289         estimate D2E/DX2                !
 ! R39   R(14,41)                1.0976         estimate D2E/DX2                !
 ! R40   R(14,42)                1.0976         estimate D2E/DX2                !
 ! R41   R(15,17)                1.5209         estimate D2E/DX2                !
 ! R42   R(15,43)                1.0965         estimate D2E/DX2                !
 ! R43   R(15,44)                1.0967         estimate D2E/DX2                !
 ! R44   R(16,18)                1.509          estimate D2E/DX2                !
 ! R45   R(16,45)                1.0959         estimate D2E/DX2                !
 ! R46   R(16,46)                1.096          estimate D2E/DX2                !
 ! R47   R(17,47)                1.0945         estimate D2E/DX2                !
 ! R48   R(17,48)                1.0944         estimate D2E/DX2                !
 ! R49   R(17,49)                1.0945         estimate D2E/DX2                !
 ! A1    A(18,1,50)            111.9234         estimate D2E/DX2                !
 ! A2    A(4,3,5)              111.0526         estimate D2E/DX2                !
 ! A3    A(4,3,19)             109.5701         estimate D2E/DX2                !
 ! A4    A(4,3,20)             109.4536         estimate D2E/DX2                !
 ! A5    A(5,3,19)             109.7726         estimate D2E/DX2                !
 ! A6    A(5,3,20)             109.6884         estimate D2E/DX2                !
 ! A7    A(19,3,20)            107.2225         estimate D2E/DX2                !
 ! A8    A(3,4,6)              113.6806         estimate D2E/DX2                !
 ! A9    A(3,4,21)             109.4784         estimate D2E/DX2                !
 ! A10   A(3,4,22)             109.141          estimate D2E/DX2                !
 ! A11   A(6,4,21)             108.8791         estimate D2E/DX2                !
 ! A12   A(6,4,22)             108.7231         estimate D2E/DX2                !
 ! A13   A(21,4,22)            106.7026         estimate D2E/DX2                !
 ! A14   A(3,5,7)              111.2108         estimate D2E/DX2                !
 ! A15   A(3,5,23)             109.7787         estimate D2E/DX2                !
 ! A16   A(3,5,24)             109.616          estimate D2E/DX2                !
 ! A17   A(7,5,23)             109.4171         estimate D2E/DX2                !
 ! A18   A(7,5,24)             109.5448         estimate D2E/DX2                !
 ! A19   A(23,5,24)            107.1852         estimate D2E/DX2                !
 ! A20   A(4,6,8)              115.936          estimate D2E/DX2                !
 ! A21   A(4,6,25)             108.4373         estimate D2E/DX2                !
 ! A22   A(4,6,26)             108.6738         estimate D2E/DX2                !
 ! A23   A(8,6,25)             108.7536         estimate D2E/DX2                !
 ! A24   A(8,6,26)             108.3349         estimate D2E/DX2                !
 ! A25   A(25,6,26)            106.2887         estimate D2E/DX2                !
 ! A26   A(5,7,9)              113.5138         estimate D2E/DX2                !
 ! A27   A(5,7,27)             109.5234         estimate D2E/DX2                !
 ! A28   A(5,7,28)             109.1484         estimate D2E/DX2                !
 ! A29   A(9,7,27)             108.7891         estimate D2E/DX2                !
 ! A30   A(9,7,28)             108.9127         estimate D2E/DX2                !
 ! A31   A(27,7,28)            106.7295         estimate D2E/DX2                !
 ! A32   A(6,8,10)             113.573          estimate D2E/DX2                !
 ! A33   A(6,8,29)             109.0367         estimate D2E/DX2                !
 ! A34   A(6,8,30)             108.6177         estimate D2E/DX2                !
 ! A35   A(10,8,29)            109.4121         estimate D2E/DX2                !
 ! A36   A(10,8,30)            109.229          estimate D2E/DX2                !
 ! A37   A(29,8,30)            106.7452         estimate D2E/DX2                !
 ! A38   A(7,9,11)             116.0128         estimate D2E/DX2                !
 ! A39   A(7,9,31)             108.4103         estimate D2E/DX2                !
 ! A40   A(7,9,32)             108.6908         estimate D2E/DX2                !
 ! A41   A(11,9,31)            108.3001         estimate D2E/DX2                !
 ! A42   A(11,9,32)            108.7299         estimate D2E/DX2                !
 ! A43   A(31,9,32)            106.2714         estimate D2E/DX2                !
 ! A44   A(8,10,12)            111.3443         estimate D2E/DX2                !
 ! A45   A(8,10,33)            109.6541         estimate D2E/DX2                !
 ! A46   A(8,10,34)            109.4632         estimate D2E/DX2                !
 ! A47   A(12,10,33)           109.3876         estimate D2E/DX2                !
 ! A48   A(12,10,34)           109.7454         estimate D2E/DX2                !
 ! A49   A(33,10,34)           107.152          estimate D2E/DX2                !
 ! A50   A(9,11,13)            113.5382         estimate D2E/DX2                !
 ! A51   A(9,11,35)            108.7359         estimate D2E/DX2                !
 ! A52   A(9,11,36)            109.1408         estimate D2E/DX2                !
 ! A53   A(13,11,35)           109.372          estimate D2E/DX2                !
 ! A54   A(13,11,36)           109.0801         estimate D2E/DX2                !
 ! A55   A(35,11,36)           106.7515         estimate D2E/DX2                !
 ! A56   A(10,12,14)           113.7357         estimate D2E/DX2                !
 ! A57   A(10,12,37)           109.2146         estimate D2E/DX2                !
 ! A58   A(10,12,38)           109.2862         estimate D2E/DX2                !
 ! A59   A(14,12,37)           108.7435         estimate D2E/DX2                !
 ! A60   A(14,12,38)           108.9105         estimate D2E/DX2                !
 ! A61   A(37,12,38)           106.713          estimate D2E/DX2                !
 ! A62   A(11,13,15)           113.3119         estimate D2E/DX2                !
 ! A63   A(11,13,39)           109.2499         estimate D2E/DX2                !
 ! A64   A(11,13,40)           109.0699         estimate D2E/DX2                !
 ! A65   A(15,13,39)           109.307          estimate D2E/DX2                !
 ! A66   A(15,13,40)           108.9332         estimate D2E/DX2                !
 ! A67   A(39,13,40)           106.7592         estimate D2E/DX2                !
 ! A68   A(12,14,16)           114.5276         estimate D2E/DX2                !
 ! A69   A(12,14,41)           108.8424         estimate D2E/DX2                !
 ! A70   A(12,14,42)           109.0402         estimate D2E/DX2                !
 ! A71   A(16,14,41)           109.0572         estimate D2E/DX2                !
 ! A72   A(16,14,42)           108.9682         estimate D2E/DX2                !
 ! A73   A(41,14,42)           106.0679         estimate D2E/DX2                !
 ! A74   A(13,15,17)           113.6603         estimate D2E/DX2                !
 ! A75   A(13,15,43)           109.2605         estimate D2E/DX2                !
 ! A76   A(13,15,44)           109.3052         estimate D2E/DX2                !
 ! A77   A(17,15,43)           108.8699         estimate D2E/DX2                !
 ! A78   A(17,15,44)           108.7005         estimate D2E/DX2                !
 ! A79   A(43,15,44)           106.8185         estimate D2E/DX2                !
 ! A80   A(14,16,18)           114.3904         estimate D2E/DX2                !
 ! A81   A(14,16,45)           109.3065         estimate D2E/DX2                !
 ! A82   A(14,16,46)           109.0784         estimate D2E/DX2                !
 ! A83   A(18,16,45)           107.5896         estimate D2E/DX2                !
 ! A84   A(18,16,46)           107.794          estimate D2E/DX2                !
 ! A85   A(45,16,46)           108.5296         estimate D2E/DX2                !
 ! A86   A(15,17,47)           110.8525         estimate D2E/DX2                !
 ! A87   A(15,17,48)           110.3542         estimate D2E/DX2                !
 ! A88   A(15,17,49)           110.8698         estimate D2E/DX2                !
 ! A89   A(47,17,48)           108.1861         estimate D2E/DX2                !
 ! A90   A(47,17,49)           108.2958         estimate D2E/DX2                !
 ! A91   A(48,17,49)           108.1864         estimate D2E/DX2                !
 ! A92   A(1,18,2)             123.2134         estimate D2E/DX2                !
 ! A93   A(1,18,16)            112.8459         estimate D2E/DX2                !
 ! A94   A(2,18,16)            123.921          estimate D2E/DX2                !
 ! D1    D(50,1,18,2)            0.585          estimate D2E/DX2                !
 ! D2    D(50,1,18,16)         179.0278         estimate D2E/DX2                !
 ! D3    D(5,3,4,6)            179.434          estimate D2E/DX2                !
 ! D4    D(5,3,4,21)           -58.568          estimate D2E/DX2                !
 ! D5    D(5,3,4,22)            57.8843         estimate D2E/DX2                !
 ! D6    D(19,3,4,6)           -59.1302         estimate D2E/DX2                !
 ! D7    D(19,3,4,21)           62.8679         estimate D2E/DX2                !
 ! D8    D(19,3,4,22)          179.3201         estimate D2E/DX2                !
 ! D9    D(20,3,4,6)            58.1812         estimate D2E/DX2                !
 ! D10   D(20,3,4,21)         -179.8208         estimate D2E/DX2                !
 ! D11   D(20,3,4,22)          -63.3685         estimate D2E/DX2                !
 ! D12   D(4,3,5,7)           -178.5314         estimate D2E/DX2                !
 ! D13   D(4,3,5,23)           -57.2986         estimate D2E/DX2                !
 ! D14   D(4,3,5,24)            60.1847         estimate D2E/DX2                !
 ! D15   D(19,3,5,7)            60.1515         estimate D2E/DX2                !
 ! D16   D(19,3,5,23)         -178.6158         estimate D2E/DX2                !
 ! D17   D(19,3,5,24)          -61.1325         estimate D2E/DX2                !
 ! D18   D(20,3,5,7)           -57.4165         estimate D2E/DX2                !
 ! D19   D(20,3,5,23)           63.8162         estimate D2E/DX2                !
 ! D20   D(20,3,5,24)         -178.7004         estimate D2E/DX2                !
 ! D21   D(3,4,6,8)           -176.4688         estimate D2E/DX2                !
 ! D22   D(3,4,6,25)            60.9163         estimate D2E/DX2                !
 ! D23   D(3,4,6,26)           -54.2189         estimate D2E/DX2                !
 ! D24   D(21,4,6,8)            61.2017         estimate D2E/DX2                !
 ! D25   D(21,4,6,25)          -61.4132         estimate D2E/DX2                !
 ! D26   D(21,4,6,26)         -176.5484         estimate D2E/DX2                !
 ! D27   D(22,4,6,8)           -54.6867         estimate D2E/DX2                !
 ! D28   D(22,4,6,25)         -177.3016         estimate D2E/DX2                !
 ! D29   D(22,4,6,26)           67.5632         estimate D2E/DX2                !
 ! D30   D(3,5,7,9)           -178.4299         estimate D2E/DX2                !
 ! D31   D(3,5,7,27)           -56.6299         estimate D2E/DX2                !
 ! D32   D(3,5,7,28)            59.8844         estimate D2E/DX2                !
 ! D33   D(23,5,7,9)            60.126          estimate D2E/DX2                !
 ! D34   D(23,5,7,27)         -178.074          estimate D2E/DX2                !
 ! D35   D(23,5,7,28)          -61.5597         estimate D2E/DX2                !
 ! D36   D(24,5,7,9)           -57.1043         estimate D2E/DX2                !
 ! D37   D(24,5,7,27)           64.6957         estimate D2E/DX2                !
 ! D38   D(24,5,7,28)         -178.79           estimate D2E/DX2                !
 ! D39   D(4,6,8,10)          -177.9721         estimate D2E/DX2                !
 ! D40   D(4,6,8,29)            59.7414         estimate D2E/DX2                !
 ! D41   D(4,6,8,30)           -56.2256         estimate D2E/DX2                !
 ! D42   D(25,6,8,10)          -55.5241         estimate D2E/DX2                !
 ! D43   D(25,6,8,29)         -177.8105         estimate D2E/DX2                !
 ! D44   D(25,6,8,30)           66.2224         estimate D2E/DX2                !
 ! D45   D(26,6,8,10)           59.5988         estimate D2E/DX2                !
 ! D46   D(26,6,8,29)          -62.6876         estimate D2E/DX2                !
 ! D47   D(26,6,8,30)         -178.6547         estimate D2E/DX2                !
 ! D48   D(5,7,9,11)          -176.444          estimate D2E/DX2                !
 ! D49   D(5,7,9,31)           -54.3931         estimate D2E/DX2                !
 ! D50   D(5,7,9,32)            60.7163         estimate D2E/DX2                !
 ! D51   D(27,7,9,11)           61.3478         estimate D2E/DX2                !
 ! D52   D(27,7,9,31)         -176.6013         estimate D2E/DX2                !
 ! D53   D(27,7,9,32)          -61.4919         estimate D2E/DX2                !
 ! D54   D(28,7,9,11)          -54.6269         estimate D2E/DX2                !
 ! D55   D(28,7,9,31)           67.424          estimate D2E/DX2                !
 ! D56   D(28,7,9,32)         -177.4666         estimate D2E/DX2                !
 ! D57   D(6,8,10,12)          176.7894         estimate D2E/DX2                !
 ! D58   D(6,8,10,33)           55.5902         estimate D2E/DX2                !
 ! D59   D(6,8,10,34)          -61.6902         estimate D2E/DX2                !
 ! D60   D(29,8,10,12)         -61.1322         estimate D2E/DX2                !
 ! D61   D(29,8,10,33)         177.6686         estimate D2E/DX2                !
 ! D62   D(29,8,10,34)          60.3882         estimate D2E/DX2                !
 ! D63   D(30,8,10,12)          55.3838         estimate D2E/DX2                !
 ! D64   D(30,8,10,33)         -65.8154         estimate D2E/DX2                !
 ! D65   D(30,8,10,34)         176.9042         estimate D2E/DX2                !
 ! D66   D(7,9,11,13)          177.4315         estimate D2E/DX2                !
 ! D67   D(7,9,11,35)          -60.5766         estimate D2E/DX2                !
 ! D68   D(7,9,11,36)           55.5198         estimate D2E/DX2                !
 ! D69   D(31,9,11,13)          55.3223         estimate D2E/DX2                !
 ! D70   D(31,9,11,35)         177.3142         estimate D2E/DX2                !
 ! D71   D(31,9,11,36)         -66.5894         estimate D2E/DX2                !
 ! D72   D(32,9,11,13)         -59.7493         estimate D2E/DX2                !
 ! D73   D(32,9,11,35)          62.2426         estimate D2E/DX2                !
 ! D74   D(32,9,11,36)         178.339          estimate D2E/DX2                !
 ! D75   D(8,10,12,14)         178.3929         estimate D2E/DX2                !
 ! D76   D(8,10,12,37)          56.7258         estimate D2E/DX2                !
 ! D77   D(8,10,12,38)         -59.6723         estimate D2E/DX2                !
 ! D78   D(33,10,12,14)        -60.2524         estimate D2E/DX2                !
 ! D79   D(33,10,12,37)        178.0805         estimate D2E/DX2                !
 ! D80   D(33,10,12,38)         61.6824         estimate D2E/DX2                !
 ! D81   D(34,10,12,14)         57.037          estimate D2E/DX2                !
 ! D82   D(34,10,12,37)        -64.6301         estimate D2E/DX2                !
 ! D83   D(34,10,12,38)        178.9718         estimate D2E/DX2                !
 ! D84   D(9,11,13,15)         176.3391         estimate D2E/DX2                !
 ! D85   D(9,11,13,39)         -61.5322         estimate D2E/DX2                !
 ! D86   D(9,11,13,40)          54.8196         estimate D2E/DX2                !
 ! D87   D(35,11,13,15)         54.7013         estimate D2E/DX2                !
 ! D88   D(35,11,13,39)        176.83           estimate D2E/DX2                !
 ! D89   D(35,11,13,40)        -66.8181         estimate D2E/DX2                !
 ! D90   D(36,11,13,15)        -61.7154         estimate D2E/DX2                !
 ! D91   D(36,11,13,39)         60.4133         estimate D2E/DX2                !
 ! D92   D(36,11,13,40)        176.7651         estimate D2E/DX2                !
 ! D93   D(10,12,14,16)       -179.5276         estimate D2E/DX2                !
 ! D94   D(10,12,14,41)         58.1327         estimate D2E/DX2                !
 ! D95   D(10,12,14,42)        -57.1538         estimate D2E/DX2                !
 ! D96   D(37,12,14,16)        -57.5992         estimate D2E/DX2                !
 ! D97   D(37,12,14,41)       -179.9389         estimate D2E/DX2                !
 ! D98   D(37,12,14,42)         64.7746         estimate D2E/DX2                !
 ! D99   D(38,12,14,16)         58.3297         estimate D2E/DX2                !
 ! D100  D(38,12,14,41)        -64.0099         estimate D2E/DX2                !
 ! D101  D(38,12,14,42)       -179.2965         estimate D2E/DX2                !
 ! D102  D(11,13,15,17)       -178.7506         estimate D2E/DX2                !
 ! D103  D(11,13,15,43)         59.4375         estimate D2E/DX2                !
 ! D104  D(11,13,15,44)        -57.124          estimate D2E/DX2                !
 ! D105  D(39,13,15,17)         59.1525         estimate D2E/DX2                !
 ! D106  D(39,13,15,43)        -62.6594         estimate D2E/DX2                !
 ! D107  D(39,13,15,44)       -179.2209         estimate D2E/DX2                !
 ! D108  D(40,13,15,17)        -57.1545         estimate D2E/DX2                !
 ! D109  D(40,13,15,43)       -178.9665         estimate D2E/DX2                !
 ! D110  D(40,13,15,44)         64.4721         estimate D2E/DX2                !
 ! D111  D(12,14,16,18)       -178.6457         estimate D2E/DX2                !
 ! D112  D(12,14,16,45)        -57.9536         estimate D2E/DX2                !
 ! D113  D(12,14,16,46)         60.5663         estimate D2E/DX2                !
 ! D114  D(41,14,16,18)        -56.4227         estimate D2E/DX2                !
 ! D115  D(41,14,16,45)         64.2694         estimate D2E/DX2                !
 ! D116  D(41,14,16,46)       -177.2107         estimate D2E/DX2                !
 ! D117  D(42,14,16,18)         58.9415         estimate D2E/DX2                !
 ! D118  D(42,14,16,45)        179.6336         estimate D2E/DX2                !
 ! D119  D(42,14,16,46)        -61.8465         estimate D2E/DX2                !
 ! D120  D(13,15,17,47)        -60.1073         estimate D2E/DX2                !
 ! D121  D(13,15,17,48)       -179.9444         estimate D2E/DX2                !
 ! D122  D(13,15,17,49)         60.2068         estimate D2E/DX2                !
 ! D123  D(43,15,17,47)         61.9214         estimate D2E/DX2                !
 ! D124  D(43,15,17,48)        -57.9158         estimate D2E/DX2                !
 ! D125  D(43,15,17,49)       -177.7645         estimate D2E/DX2                !
 ! D126  D(44,15,17,47)        177.9302         estimate D2E/DX2                !
 ! D127  D(44,15,17,48)         58.093          estimate D2E/DX2                !
 ! D128  D(44,15,17,49)        -61.7557         estimate D2E/DX2                !
 ! D129  D(14,16,18,1)        -176.6716         estimate D2E/DX2                !
 ! D130  D(14,16,18,2)           1.7584         estimate D2E/DX2                !
 ! D131  D(45,16,18,1)          61.6893         estimate D2E/DX2                !
 ! D132  D(45,16,18,2)        -119.8807         estimate D2E/DX2                !
 ! D133  D(46,16,18,1)         -55.175          estimate D2E/DX2                !
 ! D134  D(46,16,18,2)         123.255          estimate D2E/DX2                !
 --------------------------------------------------------------------------------
 Trust Radius=3.00D-01 FncErr=1.00D-07 GrdErr=1.00D-06 EigMax=2.50D+02 EigMin=1.00D-04
 Number of steps in this run=    287 maximum allowed number of steps=    300.
 GradGradGradGradGradGradGradGradGradGradGradGradGradGradGradGradGradGrad

                          Input orientation:                          
 ---------------------------------------------------------------------
 Center     Atomic      Atomic             Coordinates (Angstroms)
 Number     Number       Type             X           Y           Z
 ---------------------------------------------------------------------
      1          8           0       -9.560500    0.669500   -0.083800
      2          8           0       -8.533200   -1.353400    0.016400
      3          6           0        1.770000   -0.435600    0.058200
      4          6           0        0.523500    0.450900    0.083000
      5          6           0        3.046300    0.409200    0.087700
      6          6           0       -0.791100   -0.334600    0.041400
      7          6           0        4.294900   -0.472200    0.026500
      8          6           0       -2.072100    0.505000   -0.020900
      9          6           0        5.605000    0.318700    0.091300
     10          6           0       -3.353900   -0.332100   -0.010800
     11          6           0        6.893000   -0.500900   -0.050800
     12          6           0       -4.598600    0.556100    0.005400
     13          6           0        8.164500    0.351700   -0.040400
     14          6           0       -5.916500   -0.227500   -0.023300
     15          6           0        9.450600   -0.477600   -0.093000
     16          6           0       -7.173000    0.643500   -0.019100
     17          6           0       10.719200    0.360300   -0.052700
     18          6           0       -8.468100   -0.131000   -0.014900
     19          1           0        1.754800   -1.114900    0.918900
     20          1           0        1.758700   -1.056400   -0.845600
     21          1           0        0.536000    1.074500    0.985500
     22          1           0        0.551900    1.135600   -0.773800
     23          1           0        3.049900    1.105800   -0.759300
     24          1           0        3.067500    1.012300    1.003300
     25          1           0       -0.836500   -0.982400    0.926100
     26          1           0       -0.773700   -1.003000   -0.829000
     27          1           0        4.275900   -1.192700    0.853400
     28          1           0        4.277800   -1.056400   -0.901800
     29          1           0       -2.049300    1.125900   -0.924800
     30          1           0       -2.082500    1.192100    0.834400
     31          1           0        5.590800    1.078500   -0.700800
     32          1           0        5.638700    0.866100    1.041900
     33          1           0       -3.361100   -0.984900    0.870100
     34          1           0       -3.373400   -0.981100   -0.894400
     35          1           0        6.937900   -1.231100    0.766400
     36          1           0        6.853300   -1.074100   -0.985100
     37          1           0       -4.571300    1.231800   -0.858600
     38          1           0       -4.580600    1.188800    0.901400
     39          1           0        8.143500    1.042700   -0.891900
     40          1           0        8.175300    0.968100    0.867000
     41          1           0       -5.946000   -0.903300    0.841100
     42          1           0       -5.931300   -0.870800   -0.912500
     43          1           0        9.453900   -1.082300   -1.007700
     44          1           0        9.465000   -1.178200    0.750600
     45          1           0       -7.167100    1.283700    0.870300
     46          1           0       -7.168300    1.283400   -0.908900
     47          1           0       10.758600    1.048700   -0.902700
     48          1           0       11.602600   -0.284300   -0.094000
     49          1           0       10.768600    0.948900    0.868700
     50          1           0      -10.393700    0.151900   -0.095600
 ---------------------------------------------------------------------
                    Distance matrix (angstroms):
                    1          2          3          4          5
     1  O    0.000000
     2  O    2.271015   0.000000
     3  C   11.385150  10.344082   0.000000
     4  C   10.087748   9.234920   1.529791   0.000000
     5  C   12.610653  11.713098   1.530849   2.523149   0.000000
     6  C    8.827586   7.808885   2.563146   1.531964   3.909095
     7  C   13.902797  12.858334   2.525364   3.883138   1.529579
     8  C    7.490471   6.723158   3.956352   2.598242   5.120448
     9  C   15.170567  14.236932   3.908617   5.083226   2.560303
    10  C    6.287322   5.279104   5.125410   3.956781   6.443740
    11  C   16.495108  15.449884   5.124576   6.441611   3.955321
    12  C    4.963997   4.373487   6.445566   5.123768   7.646754
    13  C   17.727902  16.784629   6.443539   7.642640   5.120126
    14  C    3.753266   2.848920   7.689748   6.476506   8.986072
    15  C   19.045678  18.005445   7.682203   8.976982   6.467931
    16  C    2.388518   2.416405   9.008201   7.699586  10.222543
    17  C   20.282081  19.328643   8.985207  10.197006   7.674340
    18  C    1.356055   1.224532  10.242891   9.010941  11.527521
    19  H   11.498935  10.330263   1.096578   2.160222   2.163734
    20  H   11.475337  10.332205   1.096529   2.158696   2.162625
    21  H   10.161040   9.438445   2.159408   1.097059   2.747776
    22  H   10.146624   9.452967   2.155148   1.097145   2.737128
    23  H   12.636014  11.866658   2.163877   2.742455   1.096665
    24  H   12.679341  11.880520   2.161743   2.762980   1.096587
    25  H    8.936266   7.759149   2.801086   2.148201   4.208990
    26  H    8.975546   7.813279   2.753085   2.151348   4.174572
    27  H   13.992573  12.837423   2.735887   4.168386   2.159698
    28  H   13.969481  12.847296   2.756094   4.163719   2.154921
    29  H    7.571902   7.005266   4.241653   2.844395   5.244421
    30  H    7.552264   6.982852   4.253663   2.811621   5.241668
    31  H   15.169372  14.349770   4.179365   5.165826   2.746666
    32  H   15.242097  14.381258   4.198682   5.220838   2.799963
    33  H    6.486873   5.255018   5.223897   4.215586   6.603820
    34  H    6.454592   5.252780   5.259238   4.265180   6.641536
    35  H   16.629261  15.489751   5.276510   6.666385   4.277355
    36  H   16.530738  15.421589   5.228393   6.597941   4.224255
    37  H    5.080218   4.810981   6.620637   5.239599   7.720103
    38  H    5.102910   4.782160   6.609068   5.221696   7.709701
    39  H   17.726362  16.872422   6.611321   7.704872   5.228995
    40  H   17.763777  16.890437   6.606996   7.709228   5.217885
    41  H    4.048920   2.752512   7.769706   6.653045   9.118757
    42  H    4.028692   2.804575   7.774425   6.663509   9.123382
    43  H   19.117264  18.018270   7.784387   9.126466   6.669469
    44  H   19.133214  18.014021   7.761694   9.113182   6.645223
    45  H    2.648757   3.090254   9.137136   7.775521  10.280601
    46  H    2.603898   3.109959   9.153330   7.800045  10.300267
    47  H   20.339130  19.462486   9.160863  10.299818   7.801886
    48  H   21.184585  20.164464   9.834942  11.104878   8.586281
    49  H   20.353320  19.457299   9.140490  10.287245   7.780434
    50  H    0.980954   2.395816  12.178851  10.922754  13.443712
                    6          7          8          9         10
     6  C    0.000000
     7  C    5.087883   0.000000
     8  C    1.532896   6.441728   0.000000
     9  C    6.429571   1.531693   7.680180   0.000000
    10  C    2.563333   7.650174   1.530964   8.983087   0.000000
    11  C    7.686452   2.599408   9.021405   1.533258  10.248368
    12  C    3.910460   8.952775   2.527154  10.206723   1.529196
    13  C    8.982231   3.956904  10.237766   2.563099  11.538717
    14  C    5.126927  10.214453   3.913563  11.535009   2.564764
    15  C   10.243580   5.157088  11.564745   3.931501  12.805590
    16  C    6.456701  11.522135   5.102780  12.782604   3.941749
    17  C   11.531641   6.478500  12.792158   5.116396  14.090185
    18  C    7.679906  12.767627   6.427546  14.080684   5.118154
    19  H    2.803655   2.767950   4.260571   4.190963   5.251279
    20  H    2.794503   2.744842   4.218190   4.190788   5.230696
    21  H    2.153621   4.176277   2.852956   5.202460   4.254698
    22  H    2.151671   4.151572   2.801766   5.191295   4.241649
    23  H    4.179612   2.158145   5.209710   2.805634   6.605790
    24  H    4.198593   2.159720   5.265152   2.784193   6.638538
    25  H    1.097452   5.234582   2.153108   6.624400   2.763689
    26  H    1.097569   5.167624   2.147774   6.578880   2.788726
    27  H    5.202900   1.096925   6.629004   2.152123   7.726663
    28  H    5.206186   1.096961   6.598120   2.153743   7.717599
    29  H    2.156309   6.611185   1.096846   7.763526   2.159431
    30  H    2.151134   6.640318   1.097157   7.772560   2.157315
    31  H    6.578477   2.147788   7.714350   1.097689   9.081495
    32  H    6.617024   2.151251   7.792071   1.097462   9.132947
    33  H    2.777505   7.719382   2.162222   9.093781   1.096442
    34  H    2.821694   7.740146   2.159833   9.125390   1.096508
    35  H    7.814524   2.847601   9.209451   2.152734  10.360183
    36  H    7.748381   2.816208   9.115152   2.157958  10.280406
    37  H    4.189692   9.071743   2.734224  10.261245   2.155600
    38  H    4.173806   9.071873   2.758766  10.254744   2.156395
    39  H    9.088184   4.236756  10.266754   2.816885  11.612778
    40  H    9.098075   4.223554  10.296215   2.762222  11.635442
    41  H    5.247469  10.282288   4.211111  11.639634   2.787649
    42  H    5.255387  10.276953   4.192994  11.640822   2.783209
    43  H   10.325681   5.296893  11.676556   4.240829  12.868425
    44  H   10.315145   5.268082  11.684736   4.192253  12.869336
    45  H    6.630184  11.626376   5.230644  12.832171   4.234105
    46  H    6.647531  11.634520   5.231224  12.848667   4.238640
    47  H   11.670493   6.704921  12.872453   5.299106  14.207912
    48  H   12.394542   7.311108  13.697655   6.030684  14.956808
    49  H   11.660123   6.681139  12.879131   5.259683  14.207726
    50  H    9.615892  14.702360   8.329423  16.000661   7.056928
                   11         12         13         14         15
    11  C    0.000000
    12  C   11.540246   0.000000
    13  C    1.530930  12.764819   0.000000
    14  C   12.812447   1.533530  14.092918   0.000000
    15  C    2.558054  14.087521   1.531195  15.369293   0.000000
    16  C   14.112513   2.576000  15.340290   1.528872  16.661525
    17  C    3.921922  15.319162   2.554744  16.646107   1.520870
    18  C   15.365595   3.930083  16.639622   2.553438  17.922222
    19  H    5.264828   6.632678   6.644955   7.779721   7.788160
    20  H    5.225067   6.613594   6.607977   7.763501   7.750274
    21  H    6.630781   5.252947   7.731036   6.659402   9.112753
    22  H    6.588658   5.241243   7.687916   6.652931   9.069331
    23  H    4.225266   7.706263   5.219638   9.094818   6.627222
    24  H    4.246805   7.744224   5.244532   9.127062   6.645724
    25  H    7.805853   4.167501   9.150516   5.222799  10.349774
    26  H    7.722434   4.213891   9.074609   5.262979  10.264212
    27  H    2.854011   9.084831   4.278465  10.275467   5.308913
    28  H    2.805718   9.067174   4.222700  10.265602   5.267545
    29  H    9.130996   2.772882  10.281209   4.195191  11.640911
    30  H    9.176570   2.724426  10.318554   4.177376  11.690182
    31  H    2.147727  10.227194   2.754687  11.600974   4.205820
    32  H    2.153126  10.294306   2.795648  11.655611   4.198108
    33  H   10.306740   2.157265  11.638512   2.811030  12.857860
    34  H   10.312188   2.161883  11.645978   2.791789  12.858877
    35  H    1.096824  11.698890   2.158872  12.917679   2.760433
    36  H    1.096837  11.609679   2.155136  12.833923   2.810271
    37  H   11.622606   1.097184  12.792366   2.153334  14.146444
    38  H   11.636377   1.097018  12.807236   2.155366  14.164755
    39  H    2.157290  12.782920   1.096802  14.143955   2.158255
    40  H    2.155136  12.809552   1.097014  14.170424   2.153611
    41  H   12.876231   2.154931  14.193600   1.097617  15.430783
    42  H   12.858539   2.157469  14.175565   1.097602  15.408732
    43  H    2.794976  14.183916   2.157447  15.425593   1.096517
    44  H    2.777798  14.189713   2.158142  15.430272   1.096681
    45  H   14.202804   2.806180  15.386876   2.155515  16.738521
    46  H   14.200008   2.822812  15.385614   2.152698  16.731845
    47  H    4.250865  15.391910   2.821121  16.746970   2.167042
    48  H    4.714776  16.223287   3.496842  17.519335   2.160664
    49  H    4.238830  15.396442   2.822135  16.750288   2.167232
    50  H   17.299080   5.810057  18.559358   4.493828  19.854282
                   16         17         18         19         20
    16  C    0.000000
    17  C   17.894473   0.000000
    18  C    1.509023  19.193626   0.000000
    19  H    9.147537   9.136777  10.312503   0.000000
    20  H    9.129514   9.106387  10.302129   1.765474   0.000000
    21  H    7.786120  10.260872   9.139357   2.506667   3.064092
    22  H    7.777263  10.222283   9.140055   3.062181   2.503275
    23  H   10.260083   7.737779  11.608106   3.070040   2.519872
    24  H   10.298017   7.751694  11.636749   2.501057   3.067720
    25  H    6.609704  11.674549   7.736387   2.594695   3.143161
    26  H    6.657172  11.599482   7.786330   3.075872   2.533017
    27  H   11.627992   6.689465  12.817593   2.523150   3.039979
    28  H   11.609894   6.649785  12.810188   3.111896   2.519727
    29  H    5.225448  12.821127   6.603689   4.784516   4.389712
    30  H    5.190628  12.859330   6.576305   4.478198   4.757412
    31  H   12.789391   5.218844  14.127492   4.706307   4.389049
    32  H   12.857485   5.221634  14.181426   4.361670   4.723670
    33  H    4.239451  14.174483   5.252982   5.117784   5.400101
    34  H    4.224031  14.181297   5.239481   5.440992   5.132884
    35  H   14.256530   4.183504  15.464976   5.186645   5.427078
    36  H   14.164053   4.227535  15.381028   5.442571   5.096540
    37  H    2.796373  15.336505   4.213562   6.977539   6.730894
    38  H    2.804498  15.351892   4.206440   6.741263   6.948356
    39  H   15.346541   2.793592  16.676089   6.982100   6.721163
    40  H   15.377284   2.772489  16.702950   6.750141   6.942936
    41  H    2.153616  16.736919   2.773116   7.704099   7.888650
    42  H    2.152461  16.718074   2.790760   7.905045   7.692530
    43  H   16.745433   2.143386  17.974668   7.936560   7.696951
    44  H   16.755121   2.141329  17.979953   7.712296   7.870816
    45  H    1.095866  17.933888   2.116024   9.238828   9.385643
    46  H    1.096010  17.931755   2.118783   9.418833   9.228759
    47  H   17.957929   1.094508  19.283306   9.437574   9.242992
    48  H   18.798659   1.094354  20.071441   9.934537   9.902697
    49  H   17.966148   1.094472  19.287238   9.247182   9.388203
    50  H    3.258900  21.113972   1.947943  12.256429  12.235331
                   21         22         23         24         25
    21  H    0.000000
    22  H    1.760432   0.000000
    23  H    3.060229   2.498220   0.000000
    24  H    2.532327   3.082455   1.765166   0.000000
    25  H    2.473484   3.050121   4.722844   4.384747   0.000000
    26  H    3.053478   2.516719   4.367129   4.708883   1.756344
    27  H    4.375443   4.683688   3.063818   2.518874   5.117240
    28  H    4.701458   4.324763   2.490613   3.061658   5.431644
    29  H    3.214913   2.605597   5.101925   5.469197   3.056410
    30  H    2.625491   3.086999   5.374836   5.155905   2.507863
    31  H    5.328661   5.039752   2.541720   3.045551   6.942931
    32  H    5.107265   5.407858   3.162857   2.575642   6.734878
    33  H    4.409290   4.744523   6.937355   6.733012   2.525222
    34  H    4.800305   4.461271   6.755160   7.004292   3.122512
    35  H    6.807945   6.982441   4.785959   4.479839   7.780016
    36  H    6.957588   6.680948   4.389624   4.758054   7.924274
    37  H    5.432307   5.124805   7.622888   7.865502   4.694312
    38  H    5.118567   5.399230   7.809567   7.650815   4.328164
    39  H    7.835796   7.593087   5.095716   5.418347   9.383313
    40  H    7.640960   7.799776   5.378990   5.109809   9.220655
    41  H    6.778559   6.999123   9.355425   9.216236   5.110819
    42  H    7.015167   6.787987   9.197411   9.391206   5.417554
    43  H    9.389013   9.177112   6.772053   7.015524  10.471003
    44  H    9.211779   9.333853   6.974952   6.766842  10.304855
    45  H    7.706801   7.893539  10.347673  10.239062   6.724197
    46  H    7.936538   7.722796  10.220838  10.416410   6.970851
    47  H   10.395553  10.207884   7.710245   7.923836  11.912859
    48  H   11.201843  11.162267   8.690436   8.702481  12.500366
    49  H   10.234037  10.349571   7.890078   7.702537  11.764844
    50  H   11.021720  11.010621  13.493732  13.533358   9.678356
                   26         27         28         29         30
    26  H    0.000000
    27  H    5.325872   0.000000
    28  H    5.052307   1.760485   0.000000
    29  H    2.483656   6.967500   6.692918   0.000000
    30  H    3.049315   6.790941   6.965885   1.760758   0.000000
    31  H    6.697458   3.050057   2.514392   7.643530   7.826192
    32  H    6.936330   2.476169   3.053854   7.939820   7.730864
    33  H    3.095466   7.639845   7.842036   3.065610   2.524960
    34  H    2.600615   7.849291   7.651574   2.488697   3.062347
    35  H    7.878204   2.663698   3.144764   9.443801   9.340457
    36  H    7.628929   3.168144   2.576908   9.170601   9.396529
    37  H    4.406469   9.331779   9.140257   2.525090   3.010307
    38  H    4.721309   9.171229   9.314704   3.121929   2.499001
    39  H    9.149060   4.795979   4.398858  10.193193  10.371765
    40  H    9.319134   4.458089   4.734740  10.381613  10.260297
    41  H    5.436162  10.226003  10.372426   4.735011   4.395154
    42  H    5.159970  10.363829  10.210793   4.365419   4.703241
    43  H   10.229468   5.503414   5.177248  11.713523  11.901880
    44  H   10.361313   5.190138   5.445393  11.861490  11.788558
    45  H    6.999441  11.707907  11.815335   5.425787   5.085552
    46  H    6.791533  11.840882  11.682804   5.121447   5.377062
    47  H   11.713618   7.080477   6.814119  12.808152  12.958855
    48  H   12.418919   7.443339   7.409546  13.749664  13.795784
    49  H   11.828643   6.836800   7.020426  12.943977  12.853447
    50  H    9.716793  14.761630  14.743231   8.441875   8.427512
                   31         32         33         34         35
    31  H    0.000000
    32  H    1.756249   0.000000
    33  H    9.319971   9.189783   0.000000
    34  H    9.199800   9.401029   1.764547   0.000000
    35  H    3.049854   2.482351  10.302464  10.447185   0.000000
    36  H    2.511657   3.057508  10.381892  10.227525   1.760556
    37  H   10.164481  10.391811   3.060514   2.516580  11.881422
    38  H   10.297407  10.225359   2.492615   3.064424  11.770726
    39  H    2.560093   3.169352  11.814044  11.693364   3.061633
    40  H    3.024868   2.544668  11.700545  11.843749   2.525423
    41  H   11.806894  11.720767   2.586350   3.104236  12.888286
    42  H   11.687745  11.861762   3.129954   2.560341  12.983252
    43  H    4.436979   4.748987  12.952214  12.828200   3.082179
    44  H    4.712609   4.347941  12.828113  12.944860   2.527703
    45  H   12.855912  12.813756   4.430822   4.757693  14.327807
    46  H   12.762442  12.961443   4.775437   4.419212  14.426164
    47  H    5.171828   5.479798  14.375127  14.277030   4.751961
    48  H    6.194124   6.179142  15.011084  15.013552   4.836956
    49  H    5.412000   5.133491  14.261417  14.381571   4.408756
    50  H   16.022768  16.088562   7.189044   7.155864  17.408047
                   36         37         38         39         40
    36  H    0.000000
    37  H   11.655671   0.000000
    38  H   11.807357   1.760550   0.000000
    39  H    2.480755  12.716250  12.850681   0.000000
    40  H    3.057538  12.865576  12.757855   1.760768   0.000000
    41  H   12.930053   3.055721   2.498967  14.328441  14.244786
    42  H   12.786422   2.504682   3.058852  14.204292  14.336818
    43  H    2.600711  14.215608  14.344677   2.499236   3.058342
    44  H    3.137590  14.332318  14.244448   3.062118   2.506687
    45  H   14.337829   3.119289   2.588427  15.413562  15.345646
    46  H   14.218610   2.598000   3.159482  15.313701  15.449249
    47  H    4.445721  15.331057  15.445564   2.615129   3.132375
    48  H    4.896294  16.262786  16.280565   3.789848   3.773382
    49  H    4.781075  15.439434  15.351109   3.162224   2.593372
    50  H   17.313385   5.970653   5.988431  18.575667  18.611839
                   41         42         43         44         45
    41  H    0.000000
    42  H    1.753963   0.000000
    43  H   15.511513  15.386948   0.000000
    44  H   15.413717  15.488914   1.760948   0.000000
    45  H    2.504976   3.057360  16.893267  16.813745   0.000000
    46  H    3.055843   2.484101  16.789992  16.896156   1.779200
    47  H   16.908424  16.799921   2.500885   3.060373  18.014702
    48  H   17.584395  17.562789   2.467501   2.466118  18.859749
    49  H   16.816934  16.892917   3.061876   2.497574  17.938825
    50  H    4.666143   4.650404  19.906843  19.921174   3.553151
                   46         47         48         49         50
    46  H    0.000000
    47  H   17.928437   0.000000
    48  H   18.853870   1.772913   0.000000
    49  H   18.027871   1.774237   1.772887   0.000000
    50  H    3.513539  21.186681  22.000625  21.199246   0.000000
 Stoichiometry    C16H32O2
 Framework group  C1[X(C16H32O2)]
 Deg. of freedom   144
 Full point group                 C1      NOp   1
 Largest Abelian subgroup         C1      NOp   1
 Largest concise Abelian subgroup C1      NOp   1
                         Standard orientation:                         
 ---------------------------------------------------------------------
 Center     Atomic      Atomic             Coordinates (Angstroms)
 Number     Number       Type             X           Y           Z
 ---------------------------------------------------------------------
      1          8           0        9.687654   -0.652348   -0.084969
      2          8           0        8.658825    1.369409    0.022364
      3          6           0       -1.643681    0.443698    0.060562
      4          6           0       -0.396513   -0.441944    0.082262
      5          6           0       -2.919344   -0.402163    0.087024
      6          6           0        0.917495    0.344689    0.043491
      7          6           0       -4.168607    0.478506    0.028906
      8          6           0        2.199130   -0.493718   -0.021741
      9          6           0       -5.478112   -0.313606    0.090858
     10          6           0        3.480298    0.344307   -0.008631
     11          6           0       -6.766725    0.505521   -0.048380
     12          6           0        4.725667   -0.543006    0.004464
     13          6           0       -8.037582   -0.348069   -0.041045
     14          6           0        6.042976    0.241684   -0.021414
     15          6           0       -9.324306    0.480442   -0.090750
     16          6           0        7.300133   -0.628378   -0.020258
     17          6           0      -10.592275   -0.358551   -0.053462
     18          6           0        8.594648    0.147079   -0.013270
     19          1           0       -1.629020    1.119955    0.923664
     20          1           0       -1.632821    1.067705   -0.841032
     21          1           0       -0.408571   -1.068748    0.982546
     22          1           0       -0.424370   -1.123625   -0.776960
     23          1           0       -2.922392   -1.095760   -0.762439
     24          1           0       -2.940118   -1.008520    1.000480
     25          1           0        0.962379    0.989384    0.930483
     26          1           0        0.899618    1.016156   -0.824536
     27          1           0       -4.150176    1.196086    0.858355
     28          1           0       -4.151918    1.066005   -0.897318
     29          1           0        2.176826   -1.111428   -0.927836
     30          1           0        2.210021   -1.183837    0.831119
     31          1           0       -5.463314   -1.070583   -0.703929
     32          1           0       -5.511429   -0.864397    1.039511
     33          1           0        3.486978    0.993986    0.874577
     34          1           0        3.499336    0.996449   -0.889924
     35          1           0       -6.812201    1.232786    0.771401
     36          1           0       -6.727428    1.082058   -0.980642
     37          1           0        4.698903   -1.215661   -0.861926
     38          1           0        4.708116   -1.178891    0.898215
     39          1           0       -8.016034   -1.036031   -0.894988
     40          1           0       -8.047946   -0.967689    0.864164
     41          1           0        6.071940    0.914438    0.845376
     42          1           0        6.057319    0.888142   -0.908328
     43          1           0       -9.328033    1.088378   -1.003301
     44          1           0       -9.339260    1.178037    0.755327
     45          1           0        7.294688   -1.271730    0.866867
     46          1           0        7.295943   -1.265124   -0.912321
     47          1           0      -10.631129   -1.043964   -0.905898
     48          1           0      -11.476159    0.285525   -0.092508
     49          1           0      -10.641260   -0.950450    0.865844
     50          1           0       10.520464   -0.134082   -0.094906
 ---------------------------------------------------------------------
 Rotational constants (GHZ):           3.8602681           0.0466606           0.0463085
 Standard basis: 6-311++G(d,p) (5D, 7F)
 There are   638 symmetry adapted cartesian basis functions of A   symmetry.
 There are   620 symmetry adapted basis functions of A   symmetry.
   620 basis functions,   936 primitive gaussians,   638 cartesian basis functions
    72 alpha electrons       72 beta electrons
       nuclear repulsion energy      1171.7214668650 Hartrees.
 NAtoms=   50 NActive=   50 NUniq=   50 SFac= 1.00D+00 NAtFMM=   60 NAOKFM=F Big=F
 Integral buffers will be    131072 words long.
 Raffenetti 2 integral format.
 Two-electron integral symmetry is turned on.
 R6APFD:  NTU= -4 IXU= 1 FactS= 1.050
 Nuclear repulsion after empirical dispersion term =     1171.6855724164 Hartrees.
 One-electron integrals computed using PRISM.
 NBasis=   620 RedAO= T EigKep=  2.04D-06  NBF=   620
 NBsUse=   619 1.00D-06 EigRej=  5.03D-07 NBFU=   619
 ExpMin= 3.60D-02 ExpMax= 8.59D+03 ExpMxC= 1.30D+03 IAcc=3 IRadAn=         5 AccDes= 0.00D+00
 Harris functional with IExCor= 1009 and IRadAn=       5 diagonalized for initial guess.
 HarFok:  IExCor= 1009 AccDes= 0.00D+00 IRadAn=         5 IDoV= 1 UseB2=F ITyADJ=14
 ICtDFT=  3500011 ScaDFX=  1.000000  1.000000  1.000000  1.000000
 FoFCou: FMM=F IPFlag=           0 FMFlag=      100000 FMFlg1=           0
         NFxFlg=           0 DoJE=T BraDBF=F KetDBF=T FulRan=T
         wScrn=  0.000000 ICntrl=       500 IOpCl=  0 I1Cent=   200000004 NGrid=           0
         NMat0=    1 NMatS0=      1 NMatT0=    0 NMatD0=    1 NMtDS0=    0 NMtDT0=    0
 Petite list used in FoFCou.
 Requested convergence on RMS density matrix=1.00D-08 within  32 cycles.
 Requested convergence on MAX density matrix=1.00D-06.
 Requested convergence on             energy=1.00D-06.
 No special actions if energy rises.
 SCF Done:  E(RM08HX) =  -779.511365349     A.U. after   13 cycles
            NFock= 13  Conv=0.77D-08     -V/T= 2.0055
 QCSCF skips out because SCF is already converged.

 **********************************************************************

            Population analysis using the SCF Density.

 **********************************************************************

 Orbital symmetries:
       Occupied  (A) (A) (A) (A) (A) (A) (A) (A) (A) (A) (A) (A)
                 (A) (A) (A) (A) (A) (A) (A) (A) (A) (A) (A) (A)
                 (A) (A) (A) (A) (A) (A) (A) (A) (A) (A) (A) (A)
                 (A) (A) (A) (A) (A) (A) (A) (A) (A) (A) (A) (A)
                 (A) (A) (A) (A) (A) (A) (A) (A) (A) (A) (A) (A)
                 (A) (A) (A) (A) (A) (A) (A) (A) (A) (A) (A) (A)
       Virtual   (A) (A) (A) (A) (A) (A) (A) (A) (A) (A) (A) (A)
                 (A) (A) (A) (A) (A) (A) (A) (A) (A) (A) (A) (A)
                 (A) (A) (A) (A) (A) (A) (A) (A) (A) (A) (A) (A)
                 (A) (A) (A) (A) (A) (A) (A) (A) (A) (A) (A) (A)
                 (A) (A) (A) (A) (A) (A) (A) (A) (A) (A) (A) (A)
                 (A) (A) (A) (A) (A) (A) (A) (A) (A) (A) (A) (A)
                 (A) (A) (A) (A) (A) (A) (A) (A) (A) (A) (A) (A)
                 (A) (A) (A) (A) (A) (A) (A) (A) (A) (A) (A) (A)
                 (A) (A) (A) (A) (A) (A) (A) (A) (A) (A) (A) (A)
                 (A) (A) (A) (A) (A) (A) (A) (A) (A) (A) (A) (A)
                 (A) (A) (A) (A) (A) (A) (A) (A) (A) (A) (A) (A)
                 (A) (A) (A) (A) (A) (A) (A) (A) (A) (A) (A) (A)
                 (A) (A) (A) (A) (A) (A) (A) (A) (A) (A) (A) (A)
                 (A) (A) (A) (A) (A) (A) (A) (A) (A) (A) (A) (A)
                 (A) (A) (A) (A) (A) (A) (A) (A) (A) (A) (A) (A)
                 (A) (A) (A) (A) (A) (A) (A) (A) (A) (A) (A) (A)
                 (A) (A) (A) (A) (A) (A) (A) (A) (A) (A) (A) (A)
                 (A) (A) (A) (A) (A) (A) (A) (A) (A) (A) (A) (A)
                 (A) (A) (A) (A) (A) (A) (A) (A) (A) (A) (A) (A)
                 (A) (A) (A) (A) (A) (A) (A) (A) (A) (A) (A) (A)
                 (A) (A) (A) (A) (A) (A) (A) (A) (A) (A) (A) (A)
                 (A) (A) (A) (A) (A) (A) (A) (A) (A) (A) (A) (A)
                 (A) (A) (A) (A) (A) (A) (A) (A) (A) (A) (A) (A)
                 (A) (A) (A) (A) (A) (A) (A) (A) (A) (A) (A) (A)
                 (A) (A) (A) (A) (A) (A) (A) (A) (A) (A) (A) (A)
                 (A) (A) (A) (A) (A) (A) (A) (A) (A) (A) (A) (A)
                 (A) (A) (A) (A) (A) (A) (A) (A) (A) (A) (A) (A)
                 (A) (A) (A) (A) (A) (A) (A) (A) (A) (A) (A) (A)
                 (A) (A) (A) (A) (A) (A) (A) (A) (A) (A) (A) (A)
                 (A) (A) (A) (A) (A) (A) (A) (A) (A) (A) (A) (A)
                 (A) (A) (A) (A) (A) (A) (A) (A) (A) (A) (A) (A)
                 (A) (A) (A) (A) (A) (A) (A) (A) (A) (A) (A) (A)
                 (A) (A) (A) (A) (A) (A) (A) (A) (A) (A) (A) (A)
                 (A) (A) (A) (A) (A) (A) (A) (A) (A) (A) (A) (A)
                 (A) (A) (A) (A) (A) (A) (A) (A) (A) (A) (A) (A)
                 (A) (A) (A) (A) (A) (A) (A) (A) (A) (A) (A) (A)
                 (A) (A) (A) (A) (A) (A) (A) (A) (A) (A) (A) (A)
                 (A) (A) (A) (A) (A) (A) (A) (A) (A) (A) (A) (A)
                 (A) (A) (A) (A) (A) (A) (A) (A) (A) (A) (A) (A)
                 (A) (A) (A) (A) (A) (A) (A) (A) (A) (A) (A) (A)
                 (A) (A) (A) (A) (A) (A) (A) (A) (A) (A) (A) (A)
                 (A) (A) (A) (A) (A) (A) (A) (A) (A) (A) (A) (A)
                 (A) (A) (A) (A) (A) (A) (A) (A) (A) (A) (A) (A)
                 (A) (A) (A) (A) (A) (A) (A) (A) (A) (A) (A) (A)
                 (A) (A) (A) (A) (A) (A) (A) (A) (A) (A) (A) (A)
                 (A) (A) (A) (A) (A) (A) (A)
 The electronic state is 1-A.
 Alpha  occ. eigenvalues --  -19.66527 -19.60646 -10.67858 -10.54977 -10.53012
 Alpha  occ. eigenvalues --  -10.52765 -10.52430 -10.52217 -10.52015 -10.51982
 Alpha  occ. eigenvalues --  -10.51963 -10.51942 -10.51924 -10.51879 -10.51853
 Alpha  occ. eigenvalues --  -10.51841 -10.51792 -10.51125  -1.23332  -1.13628
 Alpha  occ. eigenvalues --   -0.92890  -0.92127  -0.90895  -0.89267  -0.87060
 Alpha  occ. eigenvalues --   -0.84412  -0.81424  -0.78124  -0.74801  -0.71666
 Alpha  occ. eigenvalues --   -0.68862  -0.66758  -0.66601  -0.66234  -0.65701
 Alpha  occ. eigenvalues --   -0.65406  -0.58455  -0.57499  -0.57233  -0.56498
 Alpha  occ. eigenvalues --   -0.55536  -0.54341  -0.52550  -0.50744  -0.50687
 Alpha  occ. eigenvalues --   -0.50123  -0.49370  -0.48773  -0.48624  -0.47539
 Alpha  occ. eigenvalues --   -0.46614  -0.46198  -0.45506  -0.44380  -0.43383
 Alpha  occ. eigenvalues --   -0.42307  -0.41992  -0.41388  -0.40600  -0.40084
 Alpha  occ. eigenvalues --   -0.39920  -0.39400  -0.39276  -0.38812  -0.38442
 Alpha  occ. eigenvalues --   -0.38369  -0.38263  -0.38249  -0.38067  -0.37946
 Alpha  occ. eigenvalues --   -0.36163  -0.35101
 Alpha virt. eigenvalues --   -0.03143  -0.02722  -0.02205  -0.01903  -0.01891
 Alpha virt. eigenvalues --   -0.01460  -0.01222  -0.01132  -0.00416  -0.00161
 Alpha virt. eigenvalues --    0.00019   0.00938   0.01214   0.01460   0.01680
 Alpha virt. eigenvalues --    0.02376   0.02539   0.02833   0.02941   0.03085
 Alpha virt. eigenvalues --    0.03396   0.03677   0.03756   0.04368   0.04784
 Alpha virt. eigenvalues --    0.04817   0.04922   0.05109   0.06165   0.06626
 Alpha virt. eigenvalues --    0.06776   0.06842   0.07272   0.07648   0.07997
 Alpha virt. eigenvalues --    0.08526   0.08998   0.09180   0.09341   0.09966
 Alpha virt. eigenvalues --    0.10002   0.10357   0.10740   0.10835   0.11514
 Alpha virt. eigenvalues --    0.11716   0.11914   0.12162   0.12197   0.12399
 Alpha virt. eigenvalues --    0.12694   0.12731   0.12899   0.12947   0.13024
 Alpha virt. eigenvalues --    0.13406   0.13473   0.13510   0.13966   0.14075
 Alpha virt. eigenvalues --    0.14536   0.14763   0.14801   0.14919   0.15489
 Alpha virt. eigenvalues --    0.15598   0.15999   0.16030   0.16272   0.16590
 Alpha virt. eigenvalues --    0.16821   0.16917   0.17340   0.17426   0.17747
 Alpha virt. eigenvalues --    0.17958   0.18235   0.18436   0.19064   0.19202
 Alpha virt. eigenvalues --    0.19454   0.20015   0.20062   0.20376   0.20598
 Alpha virt. eigenvalues --    0.20954   0.21060   0.21268   0.21497   0.21989
 Alpha virt. eigenvalues --    0.22227   0.22861   0.23263   0.23459   0.23549
 Alpha virt. eigenvalues --    0.23769   0.24201   0.24395   0.24843   0.24962
 Alpha virt. eigenvalues --    0.25069   0.25627   0.25873   0.26176   0.26582
 Alpha virt. eigenvalues --    0.26902   0.27111   0.27505   0.27693   0.28293
 Alpha virt. eigenvalues --    0.28499   0.28852   0.28951   0.29106   0.29598
 Alpha virt. eigenvalues --    0.29879   0.30293   0.30456   0.31229   0.31360
 Alpha virt. eigenvalues --    0.31729   0.32018   0.32298   0.32579   0.32891
 Alpha virt. eigenvalues --    0.33012   0.33179   0.33453   0.33538   0.33916
 Alpha virt. eigenvalues --    0.34009   0.34165   0.34571   0.34740   0.35178
 Alpha virt. eigenvalues --    0.35798   0.35986   0.36533   0.37133   0.37675
 Alpha virt. eigenvalues --    0.37911   0.39506   0.39727   0.39799   0.40232
 Alpha virt. eigenvalues --    0.41388   0.41615   0.42049   0.42758   0.44398
 Alpha virt. eigenvalues --    0.44701   0.45399   0.45577   0.45702   0.46560
 Alpha virt. eigenvalues --    0.46694   0.47116   0.47964   0.48375   0.48556
 Alpha virt. eigenvalues --    0.49179   0.50171   0.51264   0.51512   0.53168
 Alpha virt. eigenvalues --    0.54593   0.54900   0.55779   0.57377   0.57805
 Alpha virt. eigenvalues --    0.59513   0.59896   0.60227   0.60558   0.62702
 Alpha virt. eigenvalues --    0.62931   0.63575   0.64809   0.65335   0.67184
 Alpha virt. eigenvalues --    0.67422   0.67809   0.68053   0.68436   0.68533
 Alpha virt. eigenvalues --    0.68864   0.69327   0.69831   0.70107   0.70692
 Alpha virt. eigenvalues --    0.70997   0.71325   0.71543   0.71948   0.72236
 Alpha virt. eigenvalues --    0.72730   0.73266   0.73457   0.73778   0.73996
 Alpha virt. eigenvalues --    0.74266   0.74416   0.74762   0.74847   0.75498
 Alpha virt. eigenvalues --    0.75566   0.75773   0.76218   0.76661   0.77275
 Alpha virt. eigenvalues --    0.77713   0.77849   0.78074   0.78373   0.78565
 Alpha virt. eigenvalues --    0.78765   0.79573   0.79748   0.79923   0.80429
 Alpha virt. eigenvalues --    0.80612   0.80840   0.81265   0.81948   0.82326
 Alpha virt. eigenvalues --    0.82418   0.82713   0.84584   0.85333   0.85990
 Alpha virt. eigenvalues --    0.87180   0.90035   0.92015   0.92911   0.93371
 Alpha virt. eigenvalues --    0.98386   1.00322   1.01005   1.03245   1.03387
 Alpha virt. eigenvalues --    1.03882   1.04505   1.05602   1.06232   1.06631
 Alpha virt. eigenvalues --    1.06878   1.07636   1.08452   1.08779   1.09187
 Alpha virt. eigenvalues --    1.10754   1.12257   1.14164   1.15173   1.18423
 Alpha virt. eigenvalues --    1.19267   1.20133   1.23475   1.24121   1.24684
 Alpha virt. eigenvalues --    1.25664   1.26603   1.26906   1.27783   1.28717
 Alpha virt. eigenvalues --    1.28833   1.29727   1.30008   1.30376   1.30774
 Alpha virt. eigenvalues --    1.31446   1.31785   1.32069   1.32467   1.32561
 Alpha virt. eigenvalues --    1.32571   1.32809   1.36423   1.41753   1.44417
 Alpha virt. eigenvalues --    1.47988   1.49780   1.49949   1.50371   1.51391
 Alpha virt. eigenvalues --    1.52269   1.53865   1.54488   1.54636   1.55627
 Alpha virt. eigenvalues --    1.57202   1.57709   1.58653   1.58960   1.59758
 Alpha virt. eigenvalues --    1.59879   1.60287   1.60809   1.62111   1.62281
 Alpha virt. eigenvalues --    1.62371   1.62422   1.63425   1.64278   1.64358
 Alpha virt. eigenvalues --    1.65582   1.65618   1.65912   1.66410   1.67421
 Alpha virt. eigenvalues --    1.68230   1.68481   1.68673   1.68801   1.69376
 Alpha virt. eigenvalues --    1.69567   1.69859   1.70529   1.70807   1.71390
 Alpha virt. eigenvalues --    1.71904   1.72169   1.72684   1.73758   1.75257
 Alpha virt. eigenvalues --    1.75839   1.76338   1.76596   1.76859   1.77229
 Alpha virt. eigenvalues --    1.77375   1.77649   1.77778   1.78357   1.79372
 Alpha virt. eigenvalues --    1.79980   1.81755   1.83348   1.84026   1.85154
 Alpha virt. eigenvalues --    1.86863   1.87625   1.87939   1.88738   1.89108
 Alpha virt. eigenvalues --    1.90678   1.91168   1.91700   1.92164   1.92492
 Alpha virt. eigenvalues --    1.95398   1.96376   1.96644   1.97106   1.98382
 Alpha virt. eigenvalues --    1.99983   2.03033   2.04247   2.06563   2.07916
 Alpha virt. eigenvalues --    2.09533   2.10034   2.10781   2.12675   2.13726
 Alpha virt. eigenvalues --    2.15647   2.16067   2.17664   2.18873   2.20836
 Alpha virt. eigenvalues --    2.21373   2.21515   2.23058   2.24712   2.25285
 Alpha virt. eigenvalues --    2.26447   2.26620   2.27609   2.27785   2.28505
 Alpha virt. eigenvalues --    2.28974   2.29694   2.31363   2.31778   2.35149
 Alpha virt. eigenvalues --    2.35486   2.35934   2.38370   2.39051   2.39529
 Alpha virt. eigenvalues --    2.40436   2.41848   2.42245   2.42717   2.43157
 Alpha virt. eigenvalues --    2.44497   2.46157   2.46459   2.46809   2.48757
 Alpha virt. eigenvalues --    2.48984   2.49294   2.49961   2.51725   2.51999
 Alpha virt. eigenvalues --    2.54019   2.54968   2.55303   2.55863   2.56849
 Alpha virt. eigenvalues --    2.57370   2.57755   2.58618   2.58760   2.58837
 Alpha virt. eigenvalues --    2.59101   2.60385   2.60592   2.61051   2.62421
 Alpha virt. eigenvalues --    2.63151   2.63674   2.64684   2.65033   2.65406
 Alpha virt. eigenvalues --    2.66814   2.67516   2.67698   2.68233   2.69350
 Alpha virt. eigenvalues --    2.69682   2.69877   2.70056   2.72952   2.73229
 Alpha virt. eigenvalues --    2.73869   2.74470   2.75281   2.76194   2.76525
 Alpha virt. eigenvalues --    2.78052   2.78246   2.78650   2.79780   2.81108
 Alpha virt. eigenvalues --    2.81434   2.81581   2.81904   2.84391   2.84813
 Alpha virt. eigenvalues --    2.86414   2.87821   2.87998   2.88425   2.88918
 Alpha virt. eigenvalues --    2.89597   2.91922   2.92490   2.92932   2.93367
 Alpha virt. eigenvalues --    2.93708   2.94224   2.95074   2.96481   2.96751
 Alpha virt. eigenvalues --    2.97489   3.00608   3.05850   3.11029   3.11763
 Alpha virt. eigenvalues --    3.13461   3.13684   3.15575   3.17219   3.18140
 Alpha virt. eigenvalues --    3.20680   3.21492   3.24678   3.25136   3.28291
 Alpha virt. eigenvalues --    3.33995   3.39422   3.42813   3.44142   3.48535
 Alpha virt. eigenvalues --    3.52342   3.55641   3.57725   3.63293   3.73294
 Alpha virt. eigenvalues --    3.80091   3.80153   3.81128   3.81491   3.83018
 Alpha virt. eigenvalues --    3.83533   3.84595   3.85290   3.85669   3.86331
 Alpha virt. eigenvalues --    3.86748   3.87910   3.88822   3.92154   3.93935
 Alpha virt. eigenvalues --    3.96351   3.99120   4.07829   4.09296   4.09660
 Alpha virt. eigenvalues --    4.12818   4.13465   4.14050   4.16947   4.20638
 Alpha virt. eigenvalues --    4.25096   4.29793   4.34496   4.39144   4.43578
 Alpha virt. eigenvalues --    4.47606   4.50036   4.50495   5.07667   5.15474
 Alpha virt. eigenvalues --    5.32953   5.47978   5.68998   5.95083  23.82670
 Alpha virt. eigenvalues --   23.94128  23.94457  23.94801  23.94996  23.95278
 Alpha virt. eigenvalues --   23.95940  23.96148  23.96335  23.96785  23.97410
 Alpha virt. eigenvalues --   23.98119  23.98522  23.99236  23.99400  24.04383
 Alpha virt. eigenvalues --   49.88176  50.00268
          Condensed to atoms (all electrons):
               1          2          3          4          5          6
     1  O    8.039752  -0.117557   0.000003  -0.000058  -0.000000   0.000435
     2  O   -0.117557   7.941655  -0.000008   0.000072   0.000000  -0.000493
     3  C    0.000003  -0.000008   8.801574  -1.466208  -1.380911   0.303480
     4  C   -0.000058   0.000072  -1.466208  10.391819  -0.381954  -2.653417
     5  C   -0.000000   0.000000  -1.380911  -0.381954   9.210808   0.646000
     6  C    0.000435  -0.000493   0.303480  -2.653417   0.646000  10.949087
     7  C    0.000000  -0.000000  -0.143921   0.706438  -1.242228  -0.647570
     8  C   -0.004063   0.005291   0.289504   0.743816  -0.626008  -2.372460
     9  C   -0.000000   0.000000   0.197577  -0.917163  -0.040699   0.349385
    10  C   -0.004895   0.013632  -0.760212   0.485300   0.388962  -0.961923
    11  C    0.000000  -0.000000  -0.433271   0.106645  -0.299189  -0.013847
    12  C    0.049450   0.158933   0.369829  -1.257749  -0.078285   1.119687
    13  C   -0.000000   0.000000   0.075473  -0.050631  -0.509360   0.014431
    14  C   -0.039797   0.008604  -0.059749   0.217832   0.022818  -1.125021
    15  C    0.000000  -0.000000  -0.016609   0.001732  -0.031377   0.000258
    16  C   -0.120672   0.128440   0.010487  -0.057700  -0.000418   0.025615
    17  C    0.000000   0.000000   0.000181  -0.000153  -0.013334   0.000060
    18  C    0.120872   0.145631   0.000827  -0.007601   0.000046   0.007768
    19  H    0.000000  -0.000000   0.487600  -0.076661  -0.138858  -0.031608
    20  H    0.000000   0.000000   0.496440  -0.173945  -0.074955   0.070827
    21  H   -0.000000   0.000001  -0.101537   0.477981   0.056122  -0.049598
    22  H   -0.000001   0.000003  -0.160220   0.535166   0.005475  -0.173863
    23  H    0.000000  -0.000000  -0.067442   0.003879   0.508961   0.004832
    24  H   -0.000000  -0.000000  -0.155360   0.016267   0.472528   0.012902
    25  H   -0.000025   0.000009  -0.038819  -0.120131   0.033887   0.451299
    26  H   -0.000009  -0.000029   0.040808  -0.092958   0.006704   0.497838
    27  H   -0.000000   0.000000   0.107002  -0.033963  -0.094737   0.019542
    28  H   -0.000000   0.000000  -0.053492   0.041816  -0.133806  -0.015652
    29  H    0.000039  -0.000165   0.018354  -0.059819  -0.004502  -0.066990
    30  H    0.000038  -0.000157   0.025413   0.031359  -0.008595  -0.131870
    31  H   -0.000000   0.000000   0.034950  -0.014565   0.043342   0.002886
    32  H    0.000000   0.000000  -0.013281   0.007694   0.018026  -0.003689
    33  H    0.000779   0.000608   0.019395  -0.034028  -0.008157   0.130962
    34  H    0.000542   0.001670  -0.006255   0.001058   0.001456   0.026802
    35  H    0.000000  -0.000000  -0.007880   0.002313   0.010291  -0.000817
    36  H    0.000000  -0.000000   0.000242  -0.001007   0.019069   0.000361
    37  H   -0.000149   0.001704  -0.002960   0.022789   0.000024   0.000445
    38  H    0.000448   0.002806  -0.006147   0.005601   0.002048  -0.025180
    39  H    0.000000  -0.000000  -0.002022   0.000502  -0.009503   0.000056
    40  H   -0.000000  -0.000000   0.001460   0.000050   0.009492   0.000077
    41  H   -0.006602  -0.011622  -0.001967   0.010053   0.000459  -0.024281
    42  H   -0.006125  -0.017134  -0.000007   0.001352   0.000062  -0.010252
    43  H   -0.000000  -0.000000   0.000394   0.000038   0.001672  -0.000025
    44  H   -0.000000   0.000000   0.000715  -0.000181  -0.003127   0.000033
    45  H    0.001429  -0.005554   0.000585  -0.003360  -0.000110   0.011178
    46  H    0.000131  -0.001784   0.000245  -0.001660  -0.000001   0.003271
    47  H    0.000000   0.000000   0.000005  -0.000006   0.000177  -0.000000
    48  H    0.000000  -0.000000  -0.000037   0.000001  -0.000211   0.000001
    49  H    0.000000   0.000000  -0.000040   0.000008   0.000199  -0.000001
    50  H    0.242744  -0.018459  -0.000001  -0.000003   0.000000  -0.000007
               7          8          9         10         11         12
     1  O    0.000000  -0.004063  -0.000000  -0.004895   0.000000   0.049450
     2  O   -0.000000   0.005291   0.000000   0.013632  -0.000000   0.158933
     3  C   -0.143921   0.289504   0.197577  -0.760212  -0.433271   0.369829
     4  C    0.706438   0.743816  -0.917163   0.485300   0.106645  -1.257749
     5  C   -1.242228  -0.626008  -0.040699   0.388962  -0.299189  -0.078285
     6  C   -0.647570  -2.372460   0.349385  -0.961923  -0.013847   1.119687
     7  C    9.291916   0.319869  -2.109550  -0.041664   0.194477   0.030059
     8  C    0.319869  10.060474  -0.027762  -0.482128   0.015034  -1.399796
     9  C   -2.109550  -0.027762   9.361301   0.030052  -1.295585  -0.000011
    10  C   -0.041664  -0.482128   0.030052   9.674947   0.000667  -2.590332
    11  C    0.194477   0.015034  -1.295585   0.000667   8.122992   0.000450
    12  C    0.030059  -1.399796  -0.000011  -2.590332   0.000450  12.839352
    13  C   -0.426333   0.000215   0.305740   0.000359  -0.707354   0.000007
    14  C   -0.000033  -0.089581   0.000551   0.677645   0.000010  -3.478729
    15  C   -0.345502   0.000137  -0.281975   0.000006   0.146340   0.000001
    16  C    0.000320  -0.661424   0.000009  -0.486659   0.000002   0.232272
    17  C   -0.018514   0.000003  -0.158520   0.000000  -0.160363   0.000000
    18  C    0.000014  -0.200764   0.000001  -0.440993   0.000000  -0.403366
    19  H    0.095909   0.037454  -0.011783  -0.021816   0.003305   0.011511
    20  H   -0.021533  -0.000747   0.051386   0.005442  -0.006800  -0.002554
    21  H   -0.020822  -0.034585   0.006769   0.036594  -0.003027  -0.021440
    22  H    0.037201   0.092896  -0.007713   0.024857   0.000454  -0.009393
    23  H   -0.096815  -0.003966  -0.002771  -0.002950   0.014043   0.002687
    24  H   -0.104815   0.005810   0.062186  -0.000794   0.032611   0.000836
    25  H   -0.007977  -0.068311   0.005484   0.120086   0.000879  -0.038506
    26  H   -0.003570  -0.134568  -0.003507   0.027931  -0.000118  -0.004560
    27  H    0.440358  -0.007990  -0.065038   0.002384  -0.041389  -0.000681
    28  H    0.565872   0.005241  -0.149669  -0.000179   0.085309   0.000221
    29  H    0.002769   0.444055   0.001928  -0.081218   0.000300   0.069448
    30  H    0.001109   0.497835  -0.001267  -0.197369  -0.000074   0.098251
    31  H   -0.118631  -0.001966   0.578180   0.000126  -0.200951  -0.000155
    32  H   -0.040926   0.001557   0.477444  -0.000003  -0.070701   0.000038
    33  H    0.002124  -0.157231  -0.000331   0.421151   0.000006   0.041994
    34  H   -0.000330  -0.115905   0.000052   0.453807  -0.000013  -0.015311
    35  H    0.007728   0.000168  -0.095796  -0.000063   0.522312   0.000006
    36  H    0.037260  -0.000005  -0.068573  -0.000004   0.485253   0.000003
    37  H   -0.000340   0.159603  -0.000089  -0.071690  -0.000011   0.452500
    38  H   -0.000102   0.042993   0.000080  -0.010924   0.000005   0.431586
    39  H   -0.012153   0.000056  -0.031365   0.000003  -0.055170   0.000001
    40  H    0.018513  -0.000050   0.064048   0.000000  -0.118749  -0.000001
    41  H   -0.000097   0.054059   0.000005   0.038704  -0.000001  -0.168671
    42  H    0.000034   0.017810   0.000006   0.084620   0.000001  -0.159987
    43  H    0.009379  -0.000004   0.005572  -0.000000   0.016305  -0.000000
    44  H    0.001813  -0.000001  -0.004346   0.000001   0.006013  -0.000000
    45  H    0.000012  -0.023629  -0.000001   0.005854   0.000000   0.087886
    46  H    0.000006  -0.028164   0.000001  -0.022853   0.000000   0.015753
    47  H   -0.001091  -0.000000   0.003082  -0.000000  -0.018142  -0.000000
    48  H   -0.001699   0.000000   0.003468   0.000000   0.017056   0.000000
    49  H   -0.001839   0.000000  -0.007431  -0.000000  -0.015939   0.000000
    50  H   -0.000000   0.000004   0.000000  -0.002134   0.000000  -0.005320
[...]
 0106,0.00000464,-0.00000275,0.00000098,0.00000014,-0.00000009,0.000000
 55,0.00000030,-0.00000057,-0.00000004,-0.00000096,-0.00000054,0.000003
 89,-0.00000152,-0.00000390,-0.00000173,-0.00000665,-0.00000274,-0.0000
 0018,0.00000090,-0.00000074,0.00000021,-0.00000006,0.,-0.00003281,0.00
 002351,-0.00000290,0.00000346,0.00000279,0.00000119,0.00000026,0.00000
 019,-0.00000031,0.,-0.00000049,-0.00000029,0.00020699,0.00006604,-0.00
 006740,-0.00001071,-0.00006261,-0.00000227,-0.00000007,0.00000053,-0.0
 0000046,0.00000014,-0.00000006,0.,-0.00055059,0.00057868,-0.00007454,-
 0.00007790,0.00001083,-0.00009211,0.00000020,0.00000020,-0.00000015,0.
 00000008,-0.00000016,-0.00000010,0.00041720,-0.00011940,-0.00017928,-0
 .00347191,-0.00119294,-0.00069775,0.00000015,0.00000002,0.00000008,0.0
 0000003,0.00000027,-0.00000012,0.00783661,0.15564338,0.00000282,-0.000
 00165,0.00000035,0.00000099,-0.00000212,0.00000033,0.00000448,-0.00000
 615,-0.00000056,0.00000087,0.00000526,-0.00000132,0.00000617,0.0000153
 1,-0.00000566,0.00000166,-0.00000207,-0.00000092,0.00002070,-0.0000284
 6,0.00000319,0.00000017,0.00000228,-0.00000009,0.00006257,0.00006852,-
 0.00003052,0.00000071,-0.00000086,-0.00000018,0.00016675,-0.00030962,0
 .00027361,0.00000009,0.00000118,-0.00000058,-0.00022106,-0.00016266,0.
 00010105,0.00000027,-0.00000043,-0.00000022,-0.00008407,-0.00118345,0.
 00145463,0.,0.00000056,-0.00000016,0.00507832,0.12617496,-0.20991429,-
 0.00000283,0.00000300,-0.00000018,-0.00000177,-0.00000183,0.00000196,-
 0.00000056,0.00000032,-0.00000058,0.00000022,0.00000003,-0.00000126,0.
 00000077,-0.00000144,0.00000244,0.00000191,-0.00000279,0.00000635,0.00
 000028,0.00000022,-0.00000295,-0.00000071,-0.00000085,0.00000110,-0.00
 000028,0.00000017,-0.00000039,-0.00000548,-0.00000477,0.00000279,-0.00
 000232,0.00000072,-0.00000155,0.00000035,-0.00000077,0.00000124,0.0000
 0006,0.,-0.00000060,0.00001331,-0.00000471,0.00002343,0.00000307,-0.00
 000018,-0.00001075,-0.00000033,-0.00000047,0.00000063,-0.00000010,0.00
 000010,-0.00000023,-0.00016933,-0.00006006,-0.00001951,-0.00002559,-0.
 00001043,-0.00002591,0.00000015,-0.00000043,0.00000072,0.00000004,0.,-
 0.00000035,0.00066299,-0.00008187,0.00007785,0.00000042,0.00011681,-0.
 00010558,-0.00000018,-0.00000021,0.00000034,-0.00000008,0.00000008,-0.
 00000014,0.00055039,0.00002996,0.00063971,-0.00044202,-0.00037478,0.00
 149204,-0.00000003,0.00000011,-0.00000023,0.00000005,-0.00000009,0.000
 00027,-0.00564453,-0.13907057,0.22476971,-0.00001591,0.00000298,0.0000
 0010,-0.00001064,-0.00000343,-0.00000011,-0.00002581,0.00006758,0.0000
 0235,-0.00001538,-0.00003843,-0.00000133,-0.00006357,-0.00012710,-0.00
 000427,-0.00000733,0.00002426,0.00000084,-0.00014017,0.00028114,0.0000
 0960,-0.00000507,-0.00001524,-0.00000053,-0.00041815,-0.00065734,-0.00
 002225,-0.00000285,0.00001096,0.00000038,-0.00083360,0.00176967,0.0000
 6148,-0.00000198,-0.00000708,-0.00000023,-0.00347565,-0.00560302,-0.00
 019177,-0.00000030,0.00000501,0.00000017,-0.02000262,0.01741743,0.0006
 2678,-0.00000313,-0.00000671,-0.00000022,-0.22211652,0.12503789,0.0045
 4316,0.00002152,0.00000331,0.00000010,0.00000088,-0.00000389,0.0000045
 1,0.00000087,-0.00000358,-0.00000477,0.00000118,0.00000192,0.00000174,
 0.00000118,0.00000203,-0.00000160,0.00000277,0.00000530,-0.00000561,0.
 00000277,0.00000491,0.00000596,0.00000039,-0.00000172,0.00000179,0.000
 00040,-0.00000159,-0.00000191,0.00000532,-0.00000920,0.00001445,0.0000
 0533,-0.00000821,-0.00001504,0.00000052,0.00000093,-0.00000066,0.00000
 052,0.00000088,0.00000072,0.00001857,0.00001269,-0.00002820,0.00001866
 ,0.00001071,0.00002899,0.00000024,-0.00000078,0.00000088,0.00000025,-0
 .00000072,-0.00000093,-0.00000735,-0.00004688,0.00010135,-0.00000726,-
 0.00003981,-0.00010441,0.00000030,0.00000051,-0.00000034,0.00000030,0.
 00000048,0.00000037,0.00028575,-0.00008775,-0.00012283,0.00028634,-0.0
 0009637,0.00011625,0.00000041,0.,0.00000031,0.00000041,0.00000002,-0.0
 0000031,0.00053267,-0.00000844,-0.00067423,0.00053146,-0.00005641,0.00
 067081,0.00000043,0.00000051,0.00000016,0.00000043,0.00000052,-0.00000
 013,0.00115361,-0.00150507,-0.00018196,0.24308785,0.00000392,-0.000000
 73,-0.00000002,0.00000276,0.00000080,0.00000004,-0.00000957,0.00001139
 ,0.00000042,-0.00000295,-0.00000456,-0.00000008,-0.00002793,-0.0000349
 7,-0.00000067,-0.00000118,0.00000080,-0.00000018,-0.00007585,0.0000958
 2,0.00000270,0.00000016,-0.00000052,-0.00000005,-0.00027659,-0.0002939
 1,-0.00000958,-0.00000007,-0.00000037,0.00000007,-0.00093971,0.0009088
 6,0.00001109,0.00000051,0.00000063,-0.00000005,-0.00248597,-0.00244692
 ,-0.00009211,-0.00000020,-0.00000061,0.,-0.01714717,0.01303551,0.00052
 091,0.00000094,0.00000101,0.00000005,0.12614265,-0.13605126,-0.0032712
 3,-0.00000560,-0.00000043,-0.00000003,0.00000065,0.00000048,0.00000006
 ,0.00000065,0.00000049,0.00000001,-0.00000022,0.00000020,0.00000076,-0
 .00000022,0.00000023,-0.00000074,0.00000028,0.00000044,-0.00000318,0.0
 0000023,0.00000029,0.00000319,0.00000013,0.00000019,-0.00000027,0.0000
 0014,0.00000019,0.00000030,0.00000247,0.00000066,0.00000366,0.00000254
 ,0.00000103,-0.00000343,-0.00000017,0.00000001,-0.00000023,-0.00000017
 ,0.,0.00000024,0.00000696,-0.00000345,-0.00001869,0.00000708,-0.000004
 41,0.00001815,0.00000002,0.00000011,-0.00000021,0.00000002,0.00000011,
 0.00000023,0.00007708,0.00003751,0.00003446,0.00007195,0.00003678,-0.0
 0003068,-0.00000011,-0.00000008,-0.00000006,-0.00000011,-0.00000007,0.
 00000007,-0.00017234,0.00003877,-0.00027000,-0.00015045,-0.00000166,0.
 00025636,-0.00000010,0.00000002,-0.00000013,-0.00000010,0.00000002,0.0
 0000013,0.00079809,0.00067160,-0.00015931,0.00077839,0.00067500,0.0002
 0999,-0.00000011,-0.00000010,0.00000004,-0.00000011,-0.00000011,-0.000
 00005,0.01487757,-0.01118804,-0.00208958,-0.13479545,0.14478129,0.0000
 0015,-0.00000002,-0.00000026,0.00000010,0.00000004,-0.00000030,-0.0000
 0032,0.00000038,-0.00000030,-0.00000010,-0.00000006,-0.00000224,-0.000
 00095,-0.00000066,-0.00001452,-0.00000003,-0.00000020,0.00000606,-0.00
 000258,0.00000267,0.00001568,0.00000001,-0.00000003,0.00000058,-0.0000
 0934,-0.00000964,-0.00000823,0.,0.00000006,-0.00000224,-0.00003200,0.0
 0001041,0.00059593,0.00000002,-0.00000005,0.00000216,-0.00008646,-0.00
 009163,0.00024227,0.,0.,-0.00000055,-0.00059165,0.00049480,-0.00141382
 ,0.00000004,0.00000005,-0.00000042,0.00458266,-0.00327095,-0.04638780,
 -0.00000021,-0.00000004,0.00000059,0.00000004,0.00000014,-0.00000060,0
 .,-0.00000006,-0.00000061,-0.00000002,-0.00000029,-0.00000009,0.,0.000
 00031,-0.00000012,-0.00000062,0.00000089,0.00000024,0.00000064,-0.0000
 0088,0.00000040,0.00000010,0.00000023,-0.00000022,-0.00000009,-0.00000
 020,-0.00000021,0.00000104,0.00000181,-0.00000239,-0.00000085,-0.00000
 157,-0.00000273,-0.00000005,0.00000021,-0.00000012,0.00000004,-0.00000
 020,-0.00000012,0.00000146,0.00000409,0.00000359,-0.00000099,-0.000004
 61,0.00000454,0.00000009,0.00000012,-0.00000016,-0.00000008,-0.0000001
 0,-0.00000015,-0.00007246,-0.00004082,-0.00001988,0.00007755,0.0000446
 3,-0.00001918,0.00000001,0.00000014,-0.00000011,-0.00000002,-0.0000001
 4,-0.00000011,0.00029889,-0.00032188,0.00020080,-0.00030965,0.00030850
 ,0.00024091,0.,0.00000014,-0.00000005,-0.00000002,-0.00000013,-0.00000
 005,-0.00025567,0.00028139,-0.00005423,0.00030967,-0.00023010,-0.00006
 180,-0.00000001,-0.00000006,-0.00000001,0.,0.00000005,-0.00000001,-0.0
 2167630,0.01431859,0.00109415,-0.00490208,0.00362177,0.04544795,0.0000
 0286,-0.00000039,-0.00000003,0.00000202,0.00000093,0.00000002,0.000001
 33,-0.00000787,-0.00000129,0.00000207,0.00000403,0.,0.00000512,0.00001
 142,-0.00000194,0.00000039,-0.00000306,0.00000031,0.00002116,-0.000023
 47,0.00000452,0.00000071,0.00000191,-0.00000033,0.00004266,0.00009548,
 0.00009149,0.00000020,-0.00000167,-0.00000036,-0.00013882,-0.00009582,
 0.00013270,0.00000048,0.00000097,0.00000012,0.00189192,-0.00077229,-0.
 00121679,-0.00000017,-0.00000081,-0.00000010,-0.00182508,-0.01593812,-
 0.02466417,0.00000071,0.00000117,0.00000007,-0.04604842,-0.00290072,-0
 .00504943,-0.00000412,-0.00000091,-0.00000002,0.00000016,0.00000041,-0
 .00000108,0.00000117,0.00000113,0.00000200,-0.00000085,0.00000030,0.00
 000071,-0.00000023,-0.00000023,-0.00000018,-0.00000033,-0.00000021,-0.
 00000029,-0.00000272,0.00000107,0.00000183,0.,0.00000020,-0.00000049,0
 .00000026,0.00000046,0.00000078,0.00000025,-0.00000067,-0.00000409,0.0
 0000907,0.00000465,0.00000677,-0.00000006,-0.00000010,-0.00000006,-0.0
 0000022,0.00000006,0.00000020,-0.00000223,-0.00000209,-0.00000297,-0.0
 0005395,0.00003537,0.00001894,-0.00000004,0.00000012,-0.00000025,0.000
 00005,0.00000020,0.00000032,0.00003967,-0.00000688,-0.00003050,0.00011
 806,0.00020131,0.00019112,-0.00000007,-0.00000004,-0.00000002,-0.00000
 014,-0.00000002,0.00000006,-0.00001780,0.00009797,0.00002773,-0.000509
 39,0.00050239,0.00068388,-0.00000005,0.,-0.00000009,-0.00000002,0.,0.0
 0000011,-0.00460366,-0.00306070,0.00005247,0.00102824,0.00053289,0.000
 40197,-0.00000009,-0.00000010,0.00000001,-0.00000008,-0.00000012,-0.00
 000002,-0.00140242,0.00036574,0.00020300,0.00118937,0.01331811,0.02267
 010,0.05025352,-0.00000462,0.00000119,0.00000050,-0.00000281,-0.000000
 16,0.00000054,-0.00000341,0.00001121,-0.00000123,-0.00000226,-0.000007
 66,-0.00000072,-0.00000502,-0.00001728,-0.00000321,-0.00000155,0.00000
 498,0.00000037,0.00000101,0.00002353,-0.00001071,-0.00000109,-0.000003
 48,-0.00000157,-0.00000793,-0.00000575,0.00005720,-0.00000064,0.000002
 50,-0.00000136,0.00001911,0.00009223,0.00022001,-0.00000057,-0.0000019
 0,-0.00000006,0.00105745,0.00038685,0.00040089,-0.00000002,0.00000123,
 -0.00000014,-0.00091656,-0.01150443,-0.01626991,-0.00000078,-0.0000016
 7,-0.00000024,-0.00318241,-0.12628883,-0.12002631,0.00000599,-0.000000
 19,-0.00000038,-0.00000039,-0.00000217,0.00000102,0.00000106,0.0000002
 9,0.00000121,-0.00000046,0.00000165,0.00000136,0.00000049,-0.00000003,
 0.00000010,0.00000100,0.00000013,0.00000031,-0.00000091,0.00000426,0.0
 0000259,-0.00000006,-0.00000099,0.00000050,0.00000050,0.00000020,0.000
 00051,-0.00000190,-0.00000676,0.00000242,0.00000350,-0.00000209,0.0000
 0356,0.00000021,-0.00000006,0.00000003,-0.00000015,0.00000080,0.000000
 71,0.00000368,0.00000275,-0.00000028,-0.00003179,0.00002298,0.00000283
 ,0.,-0.00000051,0.00000027,0.00000023,0.00000014,0.00000028,-0.0000125
 9,-0.00006336,0.00000002,0.00019449,0.00005685,0.00007243,0.00000014,-
 0.00000006,0.00000002,-0.00000006,0.00000047,0.00000044,-0.00007671,0.
 00001214,0.00010021,-0.00050180,0.00056535,0.00010859,0.00000007,-0.00
 000017,0.00000010,0.00000019,0.00000018,0.00000014,-0.00349606,-0.0012
 5499,0.00050867,0.00045522,-0.00012508,0.00012492,0.00000003,0.0000002
 5,0.00000012,0.00000015,0.00000003,-0.00000006,0.00040641,0.01188459,0
 .01698338,-0.00153716,-0.01026809,-0.01511709,0.00763798,0.13647908,-0
 .00000316,0.00000171,0.00000050,-0.00000120,0.00000208,0.00000051,-0.0
 0000474,0.00000700,-0.00000022,-0.00000104,-0.00000572,-0.00000174,-0.
 00000656,-0.00001618,-0.00000693,-0.00000178,0.00000250,-0.00000075,-0
 .00002070,0.00002996,0.00000443,-0.00000025,-0.00000253,-0.00000036,-0
 .00006326,-0.00006697,-0.00003134,-0.00000076,0.00000105,-0.00000022,-
 0.00016501,0.00029732,0.00031109,-0.00000013,-0.00000128,-0.00000067,0
 .00029231,0.00018266,0.00013952,-0.00000028,0.00000054,-0.00000019,0.0
 0002830,0.00029691,0.00043162,-0.00000006,-0.00000067,-0.00000022,-0.0
 0558460,-0.12028221,-0.22730310,0.00000327,-0.00000299,-0.00000041,0.0
 0000053,-0.00000044,-0.00000052,0.00000185,0.00000172,0.00000217,-0.00
 000080,0.00000138,0.00000264,-0.00000018,0.00000006,-0.00000125,-0.000
 00021,-0.00000001,-0.00000293,-0.00000198,0.00000266,0.00000672,0.0000
 0028,-0.00000022,-0.00000037,0.00000075,0.00000079,0.00000120,0.000002
 17,-0.00000112,-0.00000141,0.00000574,0.00000443,0.00000335,-0.0000000
 5,0.00000003,-0.00000060,-0.00000036,0.00000074,0.00000134,-0.00000280
 ,0.00000110,-0.00001068,-0.00001549,0.00000471,0.00002396,0.00000010,-
 0.00000012,-0.00000021,0.00000035,0.00000043,0.00000068,0.00002434,0.0
 0000752,-0.00002520,0.00018327,0.00006516,-0.00001076,-0.00000003,0.00
 000002,-0.00000035,-0.00000016,0.00000041,0.00000078,-0.00000520,-0.00
 010866,-0.00010566,-0.00069945,0.00011577,0.00009126,0.00000009,-0.000
 00009,-0.00000014,0.00000019,0.00000020,0.00000036,0.00020640,0.000187
 62,0.00155349,-0.00052036,-0.00008420,0.00064826,-0.00000005,0.0000001
 0,0.00000029,0.00000004,-0.00000009,-0.00000024,-0.00020555,-0.0147461
 1,-0.01982289,0.00007250,0.00126588,0.00013756,0.00648326,0.13283744,0
 .24396799,-0.33886513,-0.20218876,-0.00658771,0.00845852,-0.00393605,-
 0.00013563,0.00000280,0.00000959,0.00000034,-0.00000017,-0.00001182,-0
 .00000039,0.00000196,-0.00000970,-0.00000035,-0.00000640,0.00000320,0.
 00000013,0.00000232,0.00000755,0.00000026,-0.00002656,0.00002637,0.000
 00092,0.00000148,-0.00000600,-0.00000020,-0.00010083,-0.00013892,-0.00
 000469,0.00000160,0.00000470,0.00000016,-0.00036389,0.00053605,0.00001
 789,0.00000104,-0.00000400,-0.00000014,-0.00048104,-0.00158319,-0.0000
 5173,-0.00000009,0.00000273,0.00000010,-0.00235874,0.00658669,0.000220
 21,0.00000104,-0.00000159,-0.00000006,-0.04779430,-0.02343897,-0.00075
 650,-0.00000086,-0.00000076,0.00000005,-0.00000087,-0.00000076,-0.0000
 0010,-0.00000022,0.00000167,0.00000123,-0.00000022,0.00000176,-0.00000
 111,-0.00000033,0.00000092,-0.00000084,-0.00000034,0.00000086,0.000000
 90,-0.00000122,-0.00000116,-0.00000073,-0.00000122,-0.00000122,0.00000
 064,-0.00000053,-0.00000049,0.00000016,-0.00000053,-0.00000047,-0.0000
 0019,0.00000047,0.00000246,-0.00000038,0.00000047,0.00000242,0.0000005
 5,-0.00000023,0.00000056,-0.00000051,-0.00000022,0.00000052,0.00000055
 ,-0.00000047,-0.00000188,-0.00000972,-0.00000047,-0.00000256,0.0000095
 6,-0.00000036,-0.00000030,0.00000018,-0.00000036,-0.00000029,-0.000000
 20,0.00002798,0.00001555,0.00000856,0.00002790,0.00001601,-0.00000755,
 -0.00000014,0.00000040,-0.00000036,-0.00000014,0.00000037,0.00000039,-
 0.00007795,0.00002244,-0.00010279,-0.00007808,0.00001564,0.00010401,-0
 .00000010,-0.00000023,-0.00000008,-0.00000010,-0.00000023,0.00000006,0
 .00045680,-0.00006396,-0.00022151,0.00045651,-0.00007893,0.00021663,-0
 .00000050,0.00000078,-0.00000037,0.00000259,-0.00000084,-0.00000003,-0
 .00000050,0.00000075,0.00000043,0.38071965,-0.24849549,-0.22532815,-0.
 00682605,-0.00331581,-0.00475562,0.00004308,-0.00000069,0.00000185,-0.
 00000018,0.00000156,0.00000040,-0.00000050,-0.00000005,0.00000085,-0.0
 0000012,0.00000303,0.00000346,0.00000014,-0.00000110,0.00000014,-0.000
 00004,0.00001867,-0.00001265,-0.00000048,-0.00000043,0.00000093,0.0000
 0010,0.00005170,0.00005112,0.00000274,-0.00000086,-0.00000008,-0.00000
 004,0.00015394,-0.00022166,-0.00000692,-0.00000032,0.00000067,-0.00000
 002,0.00085502,0.00062829,-0.00000524,-0.00000030,0.00000010,-0.000000
 03,0.00314205,-0.00145424,-0.00017747,-0.00000018,0.00000034,0.,0.0231
 9575,0.02602150,0.00070577,0.00000058,-0.00000056,0.00000147,0.0000005
 4,-0.00000032,-0.00000139,-0.00000042,-0.00000091,-0.00000144,-0.00000
 049,-0.00000119,0.00000153,-0.00000019,-0.00000060,0.00000107,-0.00000
 017,-0.00000043,-0.00000103,0.00000099,-0.00000107,0.00000320,0.000000
 88,-0.00000061,-0.00000304,0.00000031,-0.00000033,0.00000081,0.0000002
 9,-0.00000020,-0.00000076,-0.00000280,-0.00000266,0.00000238,-0.000002
 58,-0.00000208,-0.00000223,-0.00000014,-0.00000038,0.00000074,-0.00000
 012,-0.00000027,-0.00000071,0.00000452,-0.00000185,0.00000957,0.000003
 82,-0.00000028,-0.00000906,0.00000019,-0.00000021,0.00000054,0.0000001
 7,-0.00000012,-0.00000051,-0.00001900,-0.00001158,-0.00000248,-0.00001
 747,-0.00000950,0.00000278,-0.00000007,-0.00000027,0.00000046,-0.00000
 006,-0.00000020,-0.00000044,-0.00004313,0.00003198,0.00004383,-0.00004
 044,0.00003270,-0.00004033,0.,-0.00000008,-0.00000035,0.,-0.00000014,0
 .00000038,0.00013213,-0.00017177,0.00005970,0.00016327,-0.00012973,-0.
 00008001,0.,-0.00000021,0.00000033,-0.00000023,0.00000006,0.,0.,-0.000
 00015,-0.00000032,0.22421312,0.20533572,-0.00812157,-0.00684264,-0.016
 69303,-0.00011497,0.00004373,-0.00602517,-0.00000002,-0.00000020,0.000
 00765,0.00000006,-0.00000052,0.00001543,0.,-0.00000012,0.00000444,0.00
 000010,0.00000014,-0.00000085,-0.00000003,-0.00000002,0.00000084,0.000
 00066,-0.00000039,-0.00000105,-0.00000002,0.00000009,-0.00000162,0.000
 00174,0.00000282,-0.00003022,-0.00000003,-0.00000004,0.00000107,0.0000
 0532,-0.00000729,-0.00001270,-0.00000001,-0.00000001,0.00000110,0.0000
 2903,-0.00000421,0.00077978,0.,-0.00000003,0.00000101,0.00010692,-0.00
 017916,0.00385606,0.,0.,0.00000054,0.00078773,0.00072236,0.00448585,-0
 .00000059,0.00000210,-0.00000162,0.00000062,-0.00000201,-0.00000186,-0
 .00000114,-0.00000252,-0.00000257,0.00000110,0.00000262,-0.00000228,0.
 00000039,0.00000145,-0.00000118,-0.00000040,-0.00000140,-0.00000135,-0
 .00000150,0.00000362,-0.00000290,0.00000156,-0.00000346,-0.00000337,-0
 .00000036,0.00000110,-0.00000089,0.00000038,-0.00000106,-0.00000102,0.
 00000331,0.00000625,-0.00000430,-0.00000350,-0.00000611,-0.00000489,0.
 00000036,0.00000087,-0.00000072,-0.00000037,-0.00000084,-0.00000083,-0
 .00001024,0.00001433,-0.00000782,0.00001054,-0.00001382,-0.00000945,-0
 .00000017,0.00000078,-0.00000058,0.00000018,-0.00000075,-0.00000067,0.
 00002217,0.00003378,-0.00001402,-0.00002346,-0.00003344,-0.00001606,0.
 00000017,0.00000063,-0.00000049,-0.00000017,-0.00000061,-0.00000056,0.
 00003922,-0.00002927,-0.00001993,-0.00004209,0.00003271,-0.00002074,0.
 00000004,-0.00000047,-0.00000048,-0.00000004,0.00000050,-0.00000042,0.
 00047753,0.00055627,0.00017622,-0.00046844,-0.00057632,0.00013439,-0.0
 0000002,0.00000041,-0.00000031,0.,0.,0.00000021,0.00000002,-0.00000040
 ,-0.00000036,0.00729999,0.00628057,0.01342170\\0.00000037,-0.00001781,
 -0.00000034,-0.00000988,-0.00000051,-0.00000060,-0.00000504,-0.0000076
 0,-0.00000106,-0.00000619,0.00000511,0.00000002,0.00000303,0.00000732,
 0.00000016,0.00000112,-0.00000254,-0.00000183,0.00000516,-0.00000525,0
 .00000027,0.00000886,0.00000523,0.00000258,-0.00000057,0.00000311,-0.0
 0000206,0.00000177,-0.00000638,0.00000027,-0.00000533,-0.00000710,0.00
 000034,-0.00000170,0.00000422,-0.00000102,0.00000221,0.00000440,0.0000
 0121,0.00000719,-0.00000165,0.00000172,-0.00000523,-0.00000189,-0.0000
 0032,0.00001124,0.00000325,0.00000051,-0.00000143,0.00000231,0.0000017
 1,0.00000283,0.00001287,0.00000181,0.00000161,0.00000079,0.00000100,-0
 .00000070,0.00000075,-0.00000058,0.00000057,-0.00000067,0.00000205,0.0
 0000185,0.00000320,-0.00000097,0.00000051,-0.00000197,-0.00000106,-0.0
 0000116,-0.00000002,0.00000053,-0.00000084,-0.00000344,0.00000225,0.00
 000054,-0.00000157,-0.00000214,-0.00000137,0.00000041,0.00000152,-0.00
 000136,-0.00000268,-0.00000099,-0.00000140,0.00000122,-0.00000153,-0.0
 0000057,0.00000122,0.00000091,-0.00000042,0.00000224,-0.00000163,0.000
 00057,0.00000205,0.00000230,-0.00000047,-0.00000009,0.00000020,0.00000
 052,0.00000139,-0.00000076,0.00000079,-0.00000134,0.00000105,0.0000001
 0,-0.00000246,-0.00000106,0.00000028,0.00000086,-0.00000119,0.00000171
 ,0.00000123,0.00000109,-0.00000078,0.00000004,-0.00000136,0.00000080,0
 .00000128,0.00000064,-0.00000215,0.00000097,-0.00000016,0.00000006,-0.
 00000069,-0.00000049,0.00000095,-0.00000097,-0.00000112,-0.00000108,-0
 .00000188,0.00000125,0.00000264,0.00000204,-0.00000207,0.00000117,0.00
 000031,0.00000068,-0.00000069,0.00000081,-0.00000059,-0.00000022,-0.00
 000210,-0.00000138,0.00000086,-0.00000118,0.00000059,-0.00001072,0.000
 00317,-0.00000035\\\@


 THE LENGTH OF A MEETING IS PROPORTIONAL TO THE
 SQUARE OF THE PARTICIPANTS.
 Job cpu time:       0 days 19 hours 18 minutes  1.3 seconds.
 Elapsed time:       0 days  1 hours 12 minutes 40.9 seconds.
 File lengths (MBytes):  RWF=   1526 Int=      0 D2E=      0 Chk=     33 Scr=      1
 Normal termination of Gaussian 16 at Sun Sep 21 02:48:20 2025.
