 Entering Gaussian System, Link 0=g16
 Input=PERL0070.gjf
 Output=PERL0070.log
 Initial command:
 /usr/local/g16/l1.exe "/dados_01/scratch/Gau-2598470.inp" -scrdir="/dados_01/scratch/"
 Entering Link 1 = /usr/local/g16/l1.exe PID=   2598471.
  
 Copyright (c) 1988-2017, Gaussian, Inc.  All Rights Reserved.
  
 This is part of the Gaussian(R) 16 program.  It is based on
 the Gaussian(R) 09 system (copyright 2009, Gaussian, Inc.),
 the Gaussian(R) 03 system (copyright 2003, Gaussian, Inc.),
 the Gaussian(R) 98 system (copyright 1998, Gaussian, Inc.),
 the Gaussian(R) 94 system (copyright 1995, Gaussian, Inc.),
 the Gaussian 92(TM) system (copyright 1992, Gaussian, Inc.),
 the Gaussian 90(TM) system (copyright 1990, Gaussian, Inc.),
 the Gaussian 88(TM) system (copyright 1988, Gaussian, Inc.),
 the Gaussian 86(TM) system (copyright 1986, Carnegie Mellon
 University), and the Gaussian 82(TM) system (copyright 1983,
 Carnegie Mellon University). Gaussian is a federally registered
 trademark of Gaussian, Inc.
  
 This software contains proprietary and confidential information,
 including trade secrets, belonging to Gaussian, Inc.
  
 This software is provided under written license and may be
 used, copied, transmitted, or stored only in accord with that
 written license.
  
 The following legend is applicable only to US Government
 contracts under FAR:
  
                    RESTRICTED RIGHTS LEGEND
  
 Use, reproduction and disclosure by the US Government is
 subject to restrictions as set forth in subparagraphs (a)
 and (c) of the Commercial Computer Software - Restricted
 Rights clause in FAR 52.227-19.
  
 Gaussian, Inc.
 340 Quinnipiac St., Bldg. 40, Wallingford CT 06492
  
  
 ---------------------------------------------------------------
 Warning -- This program may not be used in any manner that
 competes with the business of Gaussian, Inc. or will provide
 assistance to any competitor of Gaussian, Inc.  The licensee
 of this program is prohibited from giving any competitor of
 Gaussian, Inc. access to this program.  By using this program,
 the user acknowledges that Gaussian, Inc. is engaged in the
 business of creating and licensing software in the field of
 computational chemistry and represents and warrants to the
 licensee that it is not a competitor of Gaussian, Inc. and that
 it will not use this program in any manner prohibited above.
 ---------------------------------------------------------------
  

 Cite this work as:
 Gaussian 16, Revision B.01,
 M. J. Frisch, G. W. Trucks, H. B. Schlegel, G. E. Scuseria, 
 M. A. Robb, J. R. Cheeseman, G. Scalmani, V. Barone, 
 G. A. Petersson, H. Nakatsuji, X. Li, M. Caricato, A. V. Marenich, 
 J. Bloino, B. G. Janesko, R. Gomperts, B. Mennucci, H. P. Hratchian, 
 J. V. Ortiz, A. F. Izmaylov, J. L. Sonnenberg, D. Williams-Young, 
 F. Ding, F. Lipparini, F. Egidi, J. Goings, B. Peng, A. Petrone, 
 T. Henderson, D. Ranasinghe, V. G. Zakrzewski, J. Gao, N. Rega, 
 G. Zheng, W. Liang, M. Hada, M. Ehara, K. Toyota, R. Fukuda, 
 J. Hasegawa, M. Ishida, T. Nakajima, Y. Honda, O. Kitao, H. Nakai, 
 T. Vreven, K. Throssell, J. A. Montgomery, Jr., J. E. Peralta, 
 F. Ogliaro, M. J. Bearpark, J. J. Heyd, E. N. Brothers, K. N. Kudin, 
 V. N. Staroverov, T. A. Keith, R. Kobayashi, J. Normand, 
 K. Raghavachari, A. P. Rendell, J. C. Burant, S. S. Iyengar, 
 J. Tomasi, M. Cossi, J. M. Millam, M. Klene, C. Adamo, R. Cammi, 
 J. W. Ochterski, R. L. Martin, K. Morokuma, O. Farkas, 
 J. B. Foresman, and D. J. Fox, Gaussian, Inc., Wallingford CT, 2016.
 
 ******************************************
 Gaussian 16:  ES64L-G16RevB.01 20-Dec-2017
                10-Oct-2025 
 ******************************************
 %nprocs=16
 Will use up to   16 processors via shared memory.
 %mem=40GB
 %chk=PERL0070.chk
 ----------------------------------------------------------------------
 # opt freq=noraman M08HX/6-311++G** scf=xqc Empiricaldispersion=pfd In
 t(Grid=ultraFine)
 ----------------------------------------------------------------------
 1/18=20,19=15,26=4,38=1/1,3;
 2/9=110,12=2,17=6,18=5,40=1/2;
 3/5=4,6=6,7=1111,11=2,25=1,30=1,71=1,74=-74,75=-5,124=11/1,2,3;
 4//1;
 5/5=2,8=3,13=1,38=5/2,8;
 6/7=2,8=2,9=2,10=2,28=1/1;
 7//1,2,3,16;
 1/18=20,19=15,26=4/3(2);
 2/9=110/2;
 99//99;
 2/9=110/2;
 3/5=4,6=6,7=1111,11=2,25=1,30=1,71=1,74=-74,75=-5,124=11/1,2,3;
 4/5=5,16=3,69=1/1;
 5/5=2,8=3,13=1,38=5/2,8;
 7//1,2,3,16;
 1/18=20,19=15,26=4/3(-5);
 2/9=110/2;
 6/7=2,8=2,9=2,10=2,19=2,28=1/1;
 99/9=1/99;
 --------
 PERL0070
 --------
 Symbolic Z-matrix:
 Charge =  0 Multiplicity = 1
 O                     1.6882   -1.5883    0.0004 
 O                     2.5961    0.644     0.0004 
 O                    -3.5099   -1.0282   -0.0003 
 C                     0.7167   -0.6351   -0.0007 
 C                     1.2352    0.6396   -0.0006 
 C                    -0.6437   -0.8656   -0.0006 
 C                     2.8762   -0.7706    0.0005 
 C                     0.422     1.7541   -0.0002 
 C                    -1.4896    0.2461    0. 
 C                    -0.9597    1.5485    0.0001 
 C                    -2.9316    0.0556    0.001 
 H                    -1.0289   -1.8798   -0.0003 
 H                     3.4679   -1.0112   -0.8902 
 H                     3.4677   -1.0112    0.8913 
 H                     0.8345    2.7566    0.0001 
 H                    -1.6193    2.4132    0.0006 
 H                    -3.5288    0.9841    0.0025 
 

 GradGradGradGradGradGradGradGradGradGradGradGradGradGradGradGradGradGrad
 Berny optimization.
 Initialization pass.
                           ----------------------------
                           !    Initial Parameters    !
                           ! (Angstroms and Degrees)  !
 --------------------------                            --------------------------
 ! Name  Definition              Value          Derivative Info.                !
 --------------------------------------------------------------------------------
 ! R1    R(1,4)                  1.361          estimate D2E/DX2                !
 ! R2    R(1,7)                  1.4422         estimate D2E/DX2                !
 ! R3    R(2,5)                  1.3609         estimate D2E/DX2                !
 ! R4    R(2,7)                  1.4421         estimate D2E/DX2                !
 ! R5    R(3,11)                 1.2284         estimate D2E/DX2                !
 ! R6    R(4,5)                  1.3761         estimate D2E/DX2                !
 ! R7    R(4,6)                  1.3798         estimate D2E/DX2                !
 ! R8    R(5,8)                  1.3796         estimate D2E/DX2                !
 ! R9    R(6,9)                  1.3969         estimate D2E/DX2                !
 ! R10   R(6,12)                 1.0849         estimate D2E/DX2                !
 ! R11   R(7,13)                 1.0961         estimate D2E/DX2                !
 ! R12   R(7,14)                 1.096          estimate D2E/DX2                !
 ! R13   R(8,10)                 1.3969         estimate D2E/DX2                !
 ! R14   R(8,15)                 1.084          estimate D2E/DX2                !
 ! R15   R(9,10)                 1.4061         estimate D2E/DX2                !
 ! R16   R(9,11)                 1.4545         estimate D2E/DX2                !
 ! R17   R(10,16)                1.0876         estimate D2E/DX2                !
 ! R18   R(11,17)                1.104          estimate D2E/DX2                !
 ! A1    A(4,1,7)              101.0051         estimate D2E/DX2                !
 ! A2    A(5,2,7)              101.0148         estimate D2E/DX2                !
 ! A3    A(1,4,5)              112.3206         estimate D2E/DX2                !
 ! A4    A(1,4,6)              125.9281         estimate D2E/DX2                !
 ! A5    A(5,4,6)              121.7512         estimate D2E/DX2                !
 ! A6    A(2,5,4)              112.3199         estimate D2E/DX2                !
 ! A7    A(2,5,8)              125.9313         estimate D2E/DX2                !
 ! A8    A(4,5,8)              121.7488         estimate D2E/DX2                !
 ! A9    A(4,6,9)              117.6511         estimate D2E/DX2                !
 ! A10   A(4,6,12)             120.4137         estimate D2E/DX2                !
 ! A11   A(9,6,12)             121.9351         estimate D2E/DX2                !
 ! A12   A(1,7,2)              113.3396         estimate D2E/DX2                !
 ! A13   A(1,7,13)             108.6733         estimate D2E/DX2                !
 ! A14   A(1,7,14)             108.6715         estimate D2E/DX2                !
 ! A15   A(2,7,13)             108.671          estimate D2E/DX2                !
 ! A16   A(2,7,14)             108.6762         estimate D2E/DX2                !
 ! A17   A(13,7,14)            108.7201         estimate D2E/DX2                !
 ! A18   A(5,8,10)             117.6529         estimate D2E/DX2                !
 ! A19   A(5,8,15)             121.5177         estimate D2E/DX2                !
 ! A20   A(10,8,15)            120.8294         estimate D2E/DX2                !
 ! A21   A(6,9,10)             120.5926         estimate D2E/DX2                !
 ! A22   A(6,9,11)             119.7421         estimate D2E/DX2                !
 ! A23   A(10,9,11)            119.6653         estimate D2E/DX2                !
 ! A24   A(8,10,9)             120.6033         estimate D2E/DX2                !
 ! A25   A(8,10,16)            118.873          estimate D2E/DX2                !
 ! A26   A(9,10,16)            120.5237         estimate D2E/DX2                !
 ! A27   A(3,11,9)             125.6093         estimate D2E/DX2                !
 ! A28   A(3,11,17)            119.1677         estimate D2E/DX2                !
 ! A29   A(9,11,17)            115.223          estimate D2E/DX2                !
 ! D1    D(7,1,4,5)             -0.0285         estimate D2E/DX2                !
 ! D2    D(7,1,4,6)           -179.9663         estimate D2E/DX2                !
 ! D3    D(4,1,7,2)              0.0404         estimate D2E/DX2                !
 ! D4    D(4,1,7,13)          -120.8812         estimate D2E/DX2                !
 ! D5    D(4,1,7,14)           120.9672         estimate D2E/DX2                !
 ! D6    D(7,2,5,4)              0.0169         estimate D2E/DX2                !
 ! D7    D(7,2,5,8)            179.9531         estimate D2E/DX2                !
 ! D8    D(5,2,7,1)             -0.0361         estimate D2E/DX2                !
 ! D9    D(5,2,7,13)           120.8868         estimate D2E/DX2                !
 ! D10   D(5,2,7,14)          -120.9603         estimate D2E/DX2                !
 ! D11   D(1,4,5,2)              0.008          estimate D2E/DX2                !
 ! D12   D(1,4,5,8)           -179.9313         estimate D2E/DX2                !
 ! D13   D(6,4,5,2)            179.9487         estimate D2E/DX2                !
 ! D14   D(6,4,5,8)              0.0095         estimate D2E/DX2                !
 ! D15   D(1,4,6,9)            179.9142         estimate D2E/DX2                !
 ! D16   D(1,4,6,12)            -0.0443         estimate D2E/DX2                !
 ! D17   D(5,4,6,9)             -0.0181         estimate D2E/DX2                !
 ! D18   D(5,4,6,12)          -179.9766         estimate D2E/DX2                !
 ! D19   D(2,5,8,10)          -179.9308         estimate D2E/DX2                !
 ! D20   D(2,5,8,15)             0.0556         estimate D2E/DX2                !
 ! D21   D(4,5,8,10)            -0.0002         estimate D2E/DX2                !
 ! D22   D(4,5,8,15)           179.9862         estimate D2E/DX2                !
 ! D23   D(4,6,9,10)             0.018          estimate D2E/DX2                !
 ! D24   D(4,6,9,11)          -179.9605         estimate D2E/DX2                !
 ! D25   D(12,6,9,10)          179.9758         estimate D2E/DX2                !
 ! D26   D(12,6,9,11)           -0.0027         estimate D2E/DX2                !
 ! D27   D(5,8,10,9)             0.0003         estimate D2E/DX2                !
 ! D28   D(5,8,10,16)          179.989          estimate D2E/DX2                !
 ! D29   D(15,8,10,9)         -179.9862         estimate D2E/DX2                !
 ! D30   D(15,8,10,16)           0.0025         estimate D2E/DX2                !
 ! D31   D(6,9,10,8)            -0.0095         estimate D2E/DX2                !
 ! D32   D(6,9,10,16)         -179.998          estimate D2E/DX2                !
 ! D33   D(11,9,10,8)          179.9691         estimate D2E/DX2                !
 ! D34   D(11,9,10,16)          -0.0195         estimate D2E/DX2                !
 ! D35   D(6,9,11,3)            -0.097          estimate D2E/DX2                !
 ! D36   D(6,9,11,17)          179.9383         estimate D2E/DX2                !
 ! D37   D(10,9,11,3)          179.9243         estimate D2E/DX2                !
 ! D38   D(10,9,11,17)          -0.0404         estimate D2E/DX2                !
 --------------------------------------------------------------------------------
 Trust Radius=3.00D-01 FncErr=1.00D-07 GrdErr=1.00D-06 EigMax=2.50D+02 EigMin=1.00D-04
 Number of steps in this run=     95 maximum allowed number of steps=    102.
 GradGradGradGradGradGradGradGradGradGradGradGradGradGradGradGradGradGrad

                          Input orientation:                          
 ---------------------------------------------------------------------
 Center     Atomic      Atomic             Coordinates (Angstroms)
 Number     Number       Type             X           Y           Z
 ---------------------------------------------------------------------
      1          8           0        1.688200   -1.588300    0.000400
      2          8           0        2.596100    0.644000    0.000400
      3          8           0       -3.509900   -1.028200   -0.000300
      4          6           0        0.716700   -0.635100   -0.000700
      5          6           0        1.235200    0.639600   -0.000600
      6          6           0       -0.643700   -0.865600   -0.000600
      7          6           0        2.876200   -0.770600    0.000500
      8          6           0        0.422000    1.754100   -0.000200
      9          6           0       -1.489600    0.246100    0.000000
     10          6           0       -0.959700    1.548500    0.000100
     11          6           0       -2.931600    0.055600    0.001000
     12          1           0       -1.028900   -1.879800   -0.000300
     13          1           0        3.467900   -1.011200   -0.890200
     14          1           0        3.467700   -1.011200    0.891300
     15          1           0        0.834500    2.756600    0.000100
     16          1           0       -1.619300    2.413200    0.000600
     17          1           0       -3.528800    0.984100    0.002500
 ---------------------------------------------------------------------
                    Distance matrix (angstroms):
                    1          2          3          4          5
     1  O    0.000000
     2  O    2.409864   0.000000
     3  O    5.228189   6.330836   0.000000
     4  C    1.361030   2.273377   4.244841   0.000000
     5  C    2.273488   1.360907   5.029665   1.376119   0.000000
     6  C    2.441322   3.574241   2.870808   1.379789   2.407466
     7  C    1.442213   1.442064   6.391293   2.163747   2.163688
     8  C    3.574199   2.441113   4.816745   2.407307   1.379639
     9  C    3.669256   4.105030   2.388609   2.375768   2.753067
    10  C    4.104983   3.669037   3.625314   2.752894   2.375644
    11  C    4.903566   5.558928   1.228436   3.713107   4.207527
    12  H    2.732692   4.417034   2.623087   2.143921   3.387259
    13  H    2.072087   2.071929   7.034337   2.915778   2.915729
    14  H    2.072044   2.071974   7.034354   2.916353   2.916279
    15  H    4.427975   2.750693   5.761816   3.393745   2.154588
    16  H    5.191489   4.571615   3.926526   3.840447   3.360629
    17  H    5.816729   6.134336   2.012391   4.543797   4.776441
                    6          7          8          9         10
     6  C    0.000000
     7  C    3.521182   0.000000
     8  C    2.828170   3.520967   0.000000
     9  C    1.396934   4.482621   2.434806   0.000000
    10  C    2.434694   4.482450   1.396913   1.406072   0.000000
    11  C    2.466394   5.866272   3.759194   1.454529   2.473285
    12  H    1.084887   4.059573   3.912843   2.175246   3.428998
    13  H    4.209257   1.096058   4.209096   5.191345   5.191179
    14  H    4.209548   1.096032   4.209269   5.191343   5.191163
    15  H    3.912213   4.075497   1.084049   3.421118   2.163021
    16  H    3.420866   5.508730   2.145069   2.170978   1.087556
    17  H    3.427127   6.641009   4.025137   2.168637   2.630367
                   11         12         13         14         15
    11  C    0.000000
    12  H    2.714045   0.000000
    13  H    6.548733   4.665576   0.000000
    14  H    6.548415   4.665708   1.781500   0.000000
    15  H    4.634535   4.996845   4.682280   4.682339   0.000000
    16  H    2.698223   4.333408   6.196745   6.196566   2.477712
    17  H    1.103976   3.801504   7.330208   7.329543   4.709581
                   16         17
    16  H    0.000000
    17  H    2.385062   0.000000
 Stoichiometry    C8H6O3
 Framework group  C1[X(C8H6O3)]
 Deg. of freedom    45
 Full point group                 C1      NOp   1
 Largest Abelian subgroup         C1      NOp   1
 Largest concise Abelian subgroup C1      NOp   1
                         Standard orientation:                         
 ---------------------------------------------------------------------
 Center     Atomic      Atomic             Coordinates (Angstroms)
 Number     Number       Type             X           Y           Z
 ---------------------------------------------------------------------
      1          8           0        1.677816   -1.534545    0.000336
      2          8           0        2.542521    0.714839    0.000336
      3          8           0       -3.530114   -1.074739   -0.000364
      4          6           0        0.688124   -0.600247   -0.000764
      5          6           0        1.181959    0.684210   -0.000664
      6          6           0       -0.667581   -0.856925   -0.000664
      7          6           0        2.849835   -0.694099    0.000436
      8          6           0        0.347429    1.782829   -0.000264
      9          6           0       -1.534751    0.238264   -0.000064
     10          6           0       -1.030052    1.550636    0.000036
     11          6           0       -2.972811    0.020006    0.000936
     12          1           0       -1.033161   -1.878361   -0.000364
     13          1           0        3.446062   -0.923250   -0.890264
     14          1           0        3.445862   -0.923254    0.891236
     15          1           0        0.740530    2.793093    0.000036
     16          1           0       -1.706196    2.402462    0.000536
     17          1           0       -3.587796    0.936823    0.002436
 ---------------------------------------------------------------------
 Rotational constants (GHZ):           2.8434288           0.7602533           0.6021521
 Standard basis: 6-311++G(d,p) (5D, 7F)
 There are   295 symmetry adapted cartesian basis functions of A   symmetry.
 There are   284 symmetry adapted basis functions of A   symmetry.
   284 basis functions,   450 primitive gaussians,   295 cartesian basis functions
    39 alpha electrons       39 beta electrons
       nuclear repulsion energy       574.5711531558 Hartrees.
 NAtoms=   17 NActive=   17 NUniq=   17 SFac= 1.00D+00 NAtFMM=   60 NAOKFM=F Big=F
 Integral buffers will be    131072 words long.
 Raffenetti 2 integral format.
 Two-electron integral symmetry is turned on.
 R6APFD:  NTU= -4 IXU= 1 FactS= 1.050
 Nuclear repulsion after empirical dispersion term =      574.5612206651 Hartrees.
 One-electron integrals computed using PRISM.
 NBasis=   284 RedAO= T EigKep=  1.17D-06  NBF=   284
 NBsUse=   283 1.00D-06 EigRej=  7.06D-07 NBFU=   283
 ExpMin= 3.60D-02 ExpMax= 8.59D+03 ExpMxC= 1.30D+03 IAcc=3 IRadAn=         5 AccDes= 0.00D+00
 Harris functional with IExCor= 1009 and IRadAn=       5 diagonalized for initial guess.
 HarFok:  IExCor= 1009 AccDes= 0.00D+00 IRadAn=         5 IDoV= 1 UseB2=F ITyADJ=14
 ICtDFT=  3500011 ScaDFX=  1.000000  1.000000  1.000000  1.000000
 FoFCou: FMM=F IPFlag=           0 FMFlag=      100000 FMFlg1=           0
         NFxFlg=           0 DoJE=T BraDBF=F KetDBF=T FulRan=T
         wScrn=  0.000000 ICntrl=       500 IOpCl=  0 I1Cent=   200000004 NGrid=           0
         NMat0=    1 NMatS0=      1 NMatT0=    0 NMatD0=    1 NMtDS0=    0 NMtDT0=    0
 Petite list used in FoFCou.
 Requested convergence on RMS density matrix=1.00D-08 within  32 cycles.
 Requested convergence on MAX density matrix=1.00D-06.
 Requested convergence on             energy=1.00D-06.
 No special actions if energy rises.
 SCF Done:  E(RM08HX) =  -534.068058004     A.U. after   16 cycles
            NFock= 16  Conv=0.54D-08     -V/T= 2.0039
 QCSCF skips out because SCF is already converged.

 **********************************************************************

            Population analysis using the SCF Density.

 **********************************************************************

 Orbital symmetries:
       Occupied  (A) (A) (A) (A) (A) (A) (A) (A) (A) (A) (A) (A)
                 (A) (A) (A) (A) (A) (A) (A) (A) (A) (A) (A) (A)
                 (A) (A) (A) (A) (A) (A) (A) (A) (A) (A) (A) (A)
                 (A) (A) (A)
       Virtual   (A) (A) (A) (A) (A) (A) (A) (A) (A) (A) (A) (A)
                 (A) (A) (A) (A) (A) (A) (A) (A) (A) (A) (A) (A)
                 (A) (A) (A) (A) (A) (A) (A) (A) (A) (A) (A) (A)
                 (A) (A) (A) (A) (A) (A) (A) (A) (A) (A) (A) (A)
                 (A) (A) (A) (A) (A) (A) (A) (A) (A) (A) (A) (A)
                 (A) (A) (A) (A) (A) (A) (A) (A) (A) (A) (A) (A)
                 (A) (A) (A) (A) (A) (A) (A) (A) (A) (A) (A) (A)
                 (A) (A) (A) (A) (A) (A) (A) (A) (A) (A) (A) (A)
                 (A) (A) (A) (A) (A) (A) (A) (A) (A) (A) (A) (A)
                 (A) (A) (A) (A) (A) (A) (A) (A) (A) (A) (A) (A)
                 (A) (A) (A) (A) (A) (A) (A) (A) (A) (A) (A) (A)
                 (A) (A) (A) (A) (A) (A) (A) (A) (A) (A) (A) (A)
                 (A) (A) (A) (A) (A) (A) (A) (A) (A) (A) (A) (A)
                 (A) (A) (A) (A) (A) (A) (A) (A) (A) (A) (A) (A)
                 (A) (A) (A) (A) (A) (A) (A) (A) (A) (A) (A) (A)
                 (A) (A) (A) (A) (A) (A) (A) (A) (A) (A) (A) (A)
                 (A) (A) (A) (A) (A) (A) (A) (A) (A) (A) (A) (A)
                 (A) (A) (A) (A) (A) (A) (A) (A) (A) (A) (A) (A)
                 (A) (A) (A) (A) (A) (A) (A) (A) (A) (A) (A) (A)
                 (A) (A) (A) (A) (A) (A) (A) (A) (A) (A) (A) (A)
                 (A) (A) (A) (A)
 The electronic state is 1-A.
 Alpha  occ. eigenvalues --  -19.68532 -19.68037 -19.61045 -10.66790 -10.62462
 Alpha  occ. eigenvalues --  -10.62375 -10.61748 -10.56665 -10.56269 -10.56133
 Alpha  occ. eigenvalues --  -10.56055  -1.28030  -1.18984  -1.16430  -1.00225
 Alpha  occ. eigenvalues --   -0.89980  -0.88277  -0.80667  -0.76314  -0.74220
 Alpha  occ. eigenvalues --   -0.68716  -0.63419  -0.62550  -0.62150  -0.58237
 Alpha  occ. eigenvalues --   -0.54424  -0.53510  -0.52830  -0.50035  -0.49821
 Alpha  occ. eigenvalues --   -0.49757  -0.49072  -0.48232  -0.46772  -0.44138
 Alpha  occ. eigenvalues --   -0.40138  -0.34119  -0.32942  -0.29202
 Alpha virt. eigenvalues --   -0.04751  -0.03082  -0.02214  -0.00723  -0.00679
 Alpha virt. eigenvalues --   -0.00030   0.00032   0.01201   0.01897   0.02421
 Alpha virt. eigenvalues --    0.03377   0.04576   0.05313   0.05969   0.06051
 Alpha virt. eigenvalues --    0.08064   0.08418   0.08903   0.09415   0.09650
 Alpha virt. eigenvalues --    0.09993   0.10773   0.11232   0.11375   0.11577
 Alpha virt. eigenvalues --    0.11973   0.12762   0.13063   0.13818   0.13919
 Alpha virt. eigenvalues --    0.14240   0.15131   0.16061   0.16275   0.17322
 Alpha virt. eigenvalues --    0.18633   0.18847   0.19505   0.20384   0.20689
 Alpha virt. eigenvalues --    0.21775   0.22816   0.23205   0.23916   0.24916
 Alpha virt. eigenvalues --    0.25435   0.26771   0.28009   0.28478   0.28490
 Alpha virt. eigenvalues --    0.28991   0.29193   0.29924   0.30126   0.31012
 Alpha virt. eigenvalues --    0.31176   0.33041   0.33912   0.34159   0.35747
 Alpha virt. eigenvalues --    0.37139   0.38242   0.39266   0.39900   0.40475
 Alpha virt. eigenvalues --    0.42941   0.44752   0.46275   0.46571   0.49409
 Alpha virt. eigenvalues --    0.53451   0.53831   0.54298   0.55896   0.56146
 Alpha virt. eigenvalues --    0.57514   0.59479   0.59594   0.61868   0.62541
 Alpha virt. eigenvalues --    0.63866   0.66309   0.66487   0.67018   0.67953
 Alpha virt. eigenvalues --    0.68697   0.70192   0.71555   0.71892   0.75689
 Alpha virt. eigenvalues --    0.76468   0.77530   0.80377   0.82112   0.84553
 Alpha virt. eigenvalues --    0.86414   0.87157   0.90394   0.91184   0.93056
 Alpha virt. eigenvalues --    0.94248   0.95037   0.98384   0.98877   1.00809
 Alpha virt. eigenvalues --    1.01518   1.01791   1.02973   1.04513   1.07835
 Alpha virt. eigenvalues --    1.09077   1.10672   1.10960   1.13623   1.16293
 Alpha virt. eigenvalues --    1.18734   1.19320   1.20359   1.22886   1.25028
 Alpha virt. eigenvalues --    1.26778   1.28750   1.30352   1.30366   1.33953
 Alpha virt. eigenvalues --    1.34619   1.36314   1.46140   1.49220   1.52085
 Alpha virt. eigenvalues --    1.53960   1.54984   1.55866   1.56311   1.61362
 Alpha virt. eigenvalues --    1.61782   1.65171   1.66330   1.67421   1.67844
 Alpha virt. eigenvalues --    1.71392   1.73379   1.74130   1.74294   1.76292
 Alpha virt. eigenvalues --    1.76786   1.81938   1.82560   1.83089   1.87632
 Alpha virt. eigenvalues --    1.89496   1.93154   1.94430   1.95619   1.96970
 Alpha virt. eigenvalues --    1.98304   1.99522   2.02695   2.03333   2.06523
 Alpha virt. eigenvalues --    2.08727   2.16642   2.19709   2.22732   2.24861
 Alpha virt. eigenvalues --    2.24931   2.30764   2.35550   2.36593   2.37876
 Alpha virt. eigenvalues --    2.44200   2.46294   2.49767   2.51212   2.60205
 Alpha virt. eigenvalues --    2.62615   2.64981   2.68541   2.70398   2.71148
 Alpha virt. eigenvalues --    2.72969   2.74454   2.76089   2.79750   2.80661
 Alpha virt. eigenvalues --    2.85613   2.85886   2.90331   2.92076   2.93331
 Alpha virt. eigenvalues --    2.96633   3.00728   3.01964   3.04313   3.04877
 Alpha virt. eigenvalues --    3.10320   3.14644   3.16574   3.20983   3.21208
 Alpha virt. eigenvalues --    3.28092   3.28849   3.29400   3.40750   3.41356
 Alpha virt. eigenvalues --    3.43419   3.49047   3.49218   3.52953   3.59031
 Alpha virt. eigenvalues --    3.63946   3.70061   3.72291   3.78420   3.79723
 Alpha virt. eigenvalues --    3.98895   4.01519   4.07768   4.11483   4.22342
 Alpha virt. eigenvalues --    4.24916   4.25542   4.41682   4.90222   5.12204
 Alpha virt. eigenvalues --    5.12796   5.15360   5.30810   5.41509   5.64292
 Alpha virt. eigenvalues --    5.71811   5.83876   5.86370  23.63202  23.83295
 Alpha virt. eigenvalues --   23.96524  23.99317  23.99855  24.10006  24.14554
 Alpha virt. eigenvalues --   24.22956  49.92544  49.97399  49.99167
          Condensed to atoms (all electrons):
               1          2          3          4          5          6
     1  O    8.106321   0.036748   0.000624   0.595063   0.002207  -0.519689
     2  O    0.036748   8.112611  -0.000175   0.076105   0.955628  -0.189000
     3  O    0.000624  -0.000175   7.964302   0.048094   0.015733   0.278612
     4  C    0.595063   0.076105   0.048094  14.547245   1.120677  -3.622403
     5  C    0.002207   0.955628   0.015733   1.120677  20.108720  -6.497178
     6  C   -0.519689  -0.189000   0.278612  -3.622403  -6.497178  15.295589
     7  C    0.303143   0.392403  -0.002650   0.522610   0.268344  -0.791916
     8  C   -0.351618  -1.237364   0.032970  -8.459169 -11.550529   7.509634
     9  C   -0.095006  -0.082820  -0.571962  -3.096185  -4.583600   2.560045
    10  C    0.093594   0.148229  -0.214805   4.837587   5.415639  -8.206267
    11  C    0.014199  -0.014938   0.692097  -0.653637   0.528812  -0.280551
    12  H   -0.011211  -0.002599  -0.004520  -0.120972  -0.097062   0.430376
    13  H   -0.071990  -0.071181  -0.000029   0.007301   0.016448   0.005309
    14  H   -0.072048  -0.071084  -0.000029   0.009375   0.015724   0.005883
    15  H   -0.005787  -0.028578   0.000632  -0.131859  -0.354752   0.143920
    16  H    0.001535   0.003652  -0.006081   0.127647   0.151817  -0.176623
    17  H    0.000578  -0.001067  -0.025647   0.014727   0.022360   0.311371
               7          8          9         10         11         12
     1  O    0.303143  -0.351618  -0.095006   0.093594   0.014199  -0.011211
     2  O    0.392403  -1.237364  -0.082820   0.148229  -0.014938  -0.002599
     3  O   -0.002650   0.032970  -0.571962  -0.214805   0.692097  -0.004520
     4  C    0.522610  -8.459169  -3.096185   4.837587  -0.653637  -0.120972
     5  C    0.268344 -11.550529  -4.583600   5.415639   0.528812  -0.097062
     6  C   -0.791916   7.509634   2.560045  -8.206267  -0.280551   0.430376
     7  C    6.472433  -1.905116  -0.338979   0.721409  -0.071495   0.011220
     8  C   -1.905116  27.307349   4.471070 -10.051113   0.289020   0.075695
     9  C   -0.338979   4.471070  16.599911  -6.607176  -3.030440   0.041165
    10  C    0.721409 -10.051113  -6.607176  23.616033  -2.072193   0.093972
    11  C   -0.071495   0.289020  -3.030440  -2.072193  10.358746  -0.132362
    12  H    0.011220   0.075695   0.041165   0.093972  -0.132362   0.394366
    13  H    0.325434   0.022048   0.004621  -0.002558   0.000340  -0.000765
    14  H    0.323130   0.022307   0.005176  -0.003061   0.000445  -0.000799
    15  H   -0.017378   0.751152   0.114339  -0.195978  -0.008899   0.002520
    16  H    0.008397  -0.215772  -0.221186   0.784619  -0.078800   0.001305
    17  H   -0.003331  -0.010289  -0.355479  -0.431165   0.562395  -0.000178
              13         14         15         16         17
     1  O   -0.071990  -0.072048  -0.005787   0.001535   0.000578
     2  O   -0.071181  -0.071084  -0.028578   0.003652  -0.001067
     3  O   -0.000029  -0.000029   0.000632  -0.006081  -0.025647
     4  C    0.007301   0.009375  -0.131859   0.127647   0.014727
     5  C    0.016448   0.015724  -0.354752   0.151817   0.022360
     6  C    0.005309   0.005883   0.143920  -0.176623   0.311371
     7  C    0.325434   0.323130  -0.017378   0.008397  -0.003331
     8  C    0.022048   0.022307   0.751152  -0.215772  -0.010289
     9  C    0.004621   0.005176   0.114339  -0.221186  -0.355479
    10  C   -0.002558  -0.003061  -0.195978   0.784619  -0.431165
    11  C    0.000340   0.000445  -0.008899  -0.078800   0.562395
    12  H   -0.000765  -0.000799   0.002520   0.001305  -0.000178
    13  H    0.621198  -0.123960  -0.000232   0.000027   0.000010
    14  H   -0.123960   0.621133  -0.000216   0.000026   0.000011
    15  H   -0.000232  -0.000216   0.419517  -0.015702   0.005187
    16  H    0.000027   0.000026  -0.015702   0.431807  -0.034699
    17  H    0.000010   0.000011   0.005187  -0.034699   0.721541
 Mulliken charges:
               1
     1  O   -0.026664
     2  O   -0.026569
     3  O   -0.207167
     4  C    0.177795
     5  C    0.461012
     6  C   -0.257112
     7  C   -0.217657
     8  C   -0.700273
     9  C    1.186507
    10  C   -1.926765
    11  C   -0.102741
    12  H    0.319848
    13  H    0.267976
    14  H    0.267987
    15  H    0.322114
    16  H    0.238032
    17  H    0.223675
 Sum of Mulliken charges =  -0.00000
 Mulliken charges with hydrogens summed into heavy atoms:
               1
     1  O   -0.026664
     2  O   -0.026569
     3  O   -0.207167
     4  C    0.177795
     5  C    0.461012
     6  C    0.062737
     7  C    0.318306
     8  C   -0.378160
     9  C    1.186507
    10  C   -1.688732
    11  C    0.120934
 Electronic spatial extent (au):  <R**2>=           1756.5397
 Charge=             -0.0000 electrons
 Dipole moment (field-independent basis, Debye):
    X=              3.3165    Y=              2.3266    Z=              0.0028  Tot=              4.0512
 Quadrupole moment (field-independent basis, Debye-Ang):
   XX=            -67.3175   YY=            -62.2920   ZZ=            -64.3544
   XY=            -11.2177   XZ=             -0.0083   YZ=              0.0001
 Traceless Quadrupole moment (field-independent basis, Debye-Ang):
   XX=             -2.6629   YY=              2.3626   ZZ=              0.3002
   XY=            -11.2177   XZ=             -0.0083   YZ=              0.0001
 Octapole moment (field-independent basis, Debye-Ang**2):
  XXX=             77.0225  YYY=             10.9330  ZZZ=              0.0101  XYY=              2.9046
  XXY=             15.9572  XXZ=              0.0347  XZZ=              5.9391  YZZ=             -5.9491
  YYZ=              0.0063  XYZ=             -0.0021
 Hexadecapole moment (field-independent basis, Debye-Ang**3):
 XXXX=          -1776.0249 YYYY=           -487.3277 ZZZZ=            -74.2764 XXXY=           -170.2975
 XXXZ=             -0.0532 YYYX=              6.7660 YYYZ=              0.0027 ZZZX=              0.0160
 ZZZY=             -0.0113 XXYY=           -392.9121 XXZZ=           -281.8007 YYZZ=           -106.1983
 XXYZ=             -0.0154 YYXZ=             -0.0093 ZZXY=              0.6640
 N-N= 5.745612206651D+02 E-N=-2.396512588991D+03  KE= 5.319745701628D+02
 R6APFD:  NTU= -4 IXU= 1 FactS= 1.050
 Calling FoFJK, ICntrl=      2127 FMM=F ISym2X=0 I1Cent= 0 IOpClX= 0 NMat=1 NMatS=1 NMatT=0.
 ***** Axes restored to original set *****
 -------------------------------------------------------------------
 Center     Atomic                   Forces (Hartrees/Bohr)
 Number     Number              X              Y              Z
 -------------------------------------------------------------------
      1        8           0.012471383    0.032548878   -0.000033189
      2        8          -0.017996720   -0.029961414   -0.000020609
      3        8           0.020473185    0.030068079    0.000070330
      4        6          -0.025982049   -0.017854981    0.000034370
      5        6           0.000451161    0.026096503    0.000054549
      6        6           0.008741258   -0.003135305    0.000012429
      7        6           0.036067150   -0.016610050   -0.000005348
      8        6          -0.007219823    0.003626768   -0.000023478
      9        6           0.012124170    0.009198177   -0.000000035
     10        6           0.001090976   -0.007437472    0.000004209
     11        6          -0.030647558   -0.032634839   -0.000124861
     12        1          -0.003484418   -0.000640679   -0.000003150
     13        1          -0.001854008    0.000952286   -0.001978570
     14        1          -0.001848508    0.000956579    0.001983834
     15        1           0.002667377    0.000706812    0.000000619
     16        1          -0.002495434   -0.000539074    0.000002099
     17        1          -0.002558142    0.004659734    0.000026801
 -------------------------------------------------------------------
 Cartesian Forces:  Max     0.036067150 RMS     0.013667647

 GradGradGradGradGradGradGradGradGradGradGradGradGradGradGradGradGradGrad
 Berny optimization.
 FormGI is forming the generalized inverse of G from B-inverse, IUseBI=4.
 Internal  Forces:  Max     0.036162669 RMS     0.007946478
 Search for a local minimum.
 Step number   1 out of a maximum of   95
 All quantities printed in internal units (Hartrees-Bohrs-Radians)
 Mixed Optimization -- RFO/linear search
 Second derivative matrix not updated -- first step.
 ITU=  0
     Eigenvalues ---    0.01312   0.01367   0.01367   0.01868   0.02061
     Eigenvalues ---    0.02087   0.02193   0.02231   0.02243   0.02251
     Eigenvalues ---    0.02334   0.02345   0.06714   0.09643   0.12411
     Eigenvalues ---    0.12628   0.16000   0.16000   0.16000   0.16000
     Eigenvalues ---    0.22000   0.22452   0.23505   0.23765   0.24638
     Eigenvalues ---    0.25000   0.25000   0.33246   0.34122   0.34125
     Eigenvalues ---    0.35097   0.35410   0.35509   0.36062   0.37658
     Eigenvalues ---    0.38539   0.41654   0.42940   0.45542   0.46748
     Eigenvalues ---    0.48058   0.48868   0.49736   0.52344   0.91741
 RFO step:  Lambda=-1.69494716D-02 EMin= 1.31244012D-02
 Linear search not attempted -- first point.
 Iteration  1 RMS(Cart)=  0.03531308 RMS(Int)=  0.00102072
 Iteration  2 RMS(Cart)=  0.00111389 RMS(Int)=  0.00035771
 Iteration  3 RMS(Cart)=  0.00000030 RMS(Int)=  0.00035771
 Variable       Old X    -DE/DX   Delta X   Delta X   Delta X     New X
                                 (Linear)    (Quad)   (Total)
    R1        2.57197   0.00907   0.00000   0.01683   0.01663   2.58860
    R2        2.72539  -0.00614   0.00000  -0.01485  -0.01440   2.71099
    R3        2.57174   0.00542   0.00000   0.00979   0.00960   2.58135
    R4        2.72511  -0.00431   0.00000  -0.01065  -0.01018   2.71493
    R5        2.32141  -0.03616   0.00000  -0.03870  -0.03870   2.28270
    R6        2.60049   0.00652   0.00000   0.01352   0.01289   2.61338
    R7        2.60742  -0.00321   0.00000  -0.00585  -0.00588   2.60155
    R8        2.60714   0.00332   0.00000   0.00697   0.00694   2.61408
    R9        2.63982   0.00668   0.00000   0.01351   0.01354   2.65336
   R10        2.05014   0.00184   0.00000   0.00495   0.00495   2.05509
   R11        2.07125   0.00040   0.00000   0.00111   0.00111   2.07236
   R12        2.07120   0.00040   0.00000   0.00113   0.00113   2.07233
   R13        2.63978   0.00003   0.00000  -0.00042  -0.00040   2.63939
   R14        2.04856   0.00167   0.00000   0.00448   0.00448   2.05304
   R15        2.65709  -0.00511   0.00000  -0.01198  -0.01193   2.64516
   R16        2.74866   0.01235   0.00000   0.03138   0.03138   2.78004
   R17        2.05518   0.00108   0.00000   0.00295   0.00295   2.05813
   R18        2.08621   0.00530   0.00000   0.01517   0.01517   2.10138
    A1        1.76287   0.02752   0.00000   0.10956   0.11002   1.87289
    A2        1.76304   0.02855   0.00000   0.11172   0.11221   1.87525
    A3        1.96036  -0.01352   0.00000  -0.04828  -0.04883   1.91154
    A4        2.19786   0.01362   0.00000   0.04724   0.04764   2.24550
    A5        2.12496  -0.00010   0.00000   0.00104   0.00119   2.12615
    A6        1.96035  -0.01349   0.00000  -0.04879  -0.04932   1.91104
    A7        2.19792   0.01180   0.00000   0.04077   0.04117   2.23908
    A8        2.12492   0.00170   0.00000   0.00802   0.00815   2.13307
    A9        2.05340  -0.00320   0.00000  -0.01229  -0.01239   2.04101
   A10        2.10162   0.00470   0.00000   0.02368   0.02373   2.12535
   A11        2.12817  -0.00150   0.00000  -0.01139  -0.01134   2.11683
   A12        1.97815  -0.02906   0.00000  -0.12421  -0.12408   1.85407
   A13        1.89671   0.00706   0.00000   0.02307   0.02171   1.91842
   A14        1.89668   0.00707   0.00000   0.02309   0.02173   1.91841
   A15        1.89667   0.00673   0.00000   0.02069   0.01944   1.91611
   A16        1.89676   0.00672   0.00000   0.02064   0.01939   1.91615
   A17        1.89752   0.00243   0.00000   0.04261   0.04132   1.93884
   A18        2.05343  -0.00361   0.00000  -0.01416  -0.01427   2.03916
   A19        2.12088  -0.00044   0.00000  -0.00562  -0.00557   2.11532
   A20        2.10887   0.00405   0.00000   0.01978   0.01984   2.12871
   A21        2.10474   0.00301   0.00000   0.00982   0.00979   2.11452
   A22        2.08989  -0.00054   0.00000  -0.00128  -0.00127   2.08863
   A23        2.08855  -0.00247   0.00000  -0.00853  -0.00852   2.08003
   A24        2.10492   0.00220   0.00000   0.00757   0.00754   2.11247
   A25        2.07473   0.00128   0.00000   0.00965   0.00967   2.08440
   A26        2.10353  -0.00348   0.00000  -0.01723  -0.01721   2.08632
   A27        2.19230  -0.00580   0.00000  -0.02447  -0.02447   2.16782
   A28        2.07987   0.00328   0.00000   0.01439   0.01439   2.09426
   A29        2.01102   0.00252   0.00000   0.01008   0.01008   2.02110
    D1       -0.00050  -0.00000   0.00000   0.00000   0.00001  -0.00049
    D2       -3.14100  -0.00002   0.00000  -0.00045  -0.00045  -3.14145
    D3        0.00070  -0.00000   0.00000   0.00001   0.00001   0.00072
    D4       -2.10977   0.00544   0.00000   0.03851   0.03854  -2.07124
    D5        2.11128  -0.00544   0.00000  -0.03853  -0.03856   2.07272
    D6        0.00030   0.00001   0.00000   0.00010   0.00011   0.00040
    D7        3.14077   0.00002   0.00000   0.00055   0.00055   3.14133
    D8       -0.00063   0.00000   0.00000  -0.00005  -0.00006  -0.00068
    D9        2.10987  -0.00525   0.00000  -0.03720  -0.03708   2.07279
   D10       -2.11116   0.00525   0.00000   0.03711   0.03698  -2.07417
   D11        0.00014  -0.00000   0.00000  -0.00008  -0.00008   0.00006
   D12       -3.14039  -0.00003   0.00000  -0.00054  -0.00052  -3.14092
   D13        3.14070   0.00002   0.00000   0.00038   0.00037   3.14107
   D14        0.00017  -0.00000   0.00000  -0.00007  -0.00007   0.00010
   D15        3.14010   0.00003   0.00000   0.00078   0.00079   3.14088
   D16       -0.00077   0.00001   0.00000   0.00025   0.00025  -0.00052
   D17       -0.00032   0.00001   0.00000   0.00031   0.00031  -0.00001
   D18       -3.14118  -0.00000   0.00000  -0.00022  -0.00022  -3.14141
   D19       -3.14038  -0.00002   0.00000  -0.00057  -0.00058  -3.14096
   D20        0.00097  -0.00001   0.00000  -0.00034  -0.00035   0.00062
   D21       -0.00000  -0.00001   0.00000  -0.00011  -0.00011  -0.00011
   D22        3.14135   0.00000   0.00000   0.00011   0.00012   3.14147
   D23        0.00031  -0.00002   0.00000  -0.00037  -0.00037  -0.00005
   D24       -3.14090  -0.00002   0.00000  -0.00051  -0.00050  -3.14141
   D25        3.14117   0.00001   0.00000   0.00018   0.00018   3.14135
   D26       -0.00005   0.00000   0.00000   0.00005   0.00004  -0.00001
   D27        0.00001   0.00000   0.00000   0.00005   0.00005   0.00005
   D28        3.14140   0.00001   0.00000   0.00019   0.00019  -3.14159
   D29       -3.14135  -0.00000   0.00000  -0.00017  -0.00018  -3.14153
   D30        0.00004  -0.00000   0.00000  -0.00003  -0.00003   0.00001
   D31       -0.00017   0.00001   0.00000   0.00020   0.00019   0.00003
   D32       -3.14156   0.00000   0.00000   0.00004   0.00004  -3.14151
   D33        3.14105   0.00001   0.00000   0.00033   0.00033   3.14139
   D34       -0.00034   0.00001   0.00000   0.00018   0.00018  -0.00016
   D35       -0.00169   0.00004   0.00000   0.00123   0.00123  -0.00046
   D36        3.14052  -0.00002   0.00000  -0.00051  -0.00051   3.14000
   D37        3.14027   0.00003   0.00000   0.00109   0.00109   3.14136
   D38       -0.00070  -0.00002   0.00000  -0.00065  -0.00065  -0.00136
         Item               Value     Threshold  Converged?
 Maximum Force            0.036163     0.000450     NO 
 RMS     Force            0.007946     0.000300     NO 
 Maximum Displacement     0.144654     0.001800     NO 
 RMS     Displacement     0.034763     0.001200     NO 
 Predicted change in Energy=-9.015910D-03
 GradGradGradGradGradGradGradGradGradGradGradGradGradGradGradGradGradGrad

                          Input orientation:                          
 ---------------------------------------------------------------------
 Center     Atomic      Atomic             Coordinates (Angstroms)
 Number     Number       Type             X           Y           Z
 ---------------------------------------------------------------------
      1          8           0        1.726361   -1.542087    0.000437
      2          8           0        2.580308    0.589812    0.000483
      3          8           0       -3.507321   -1.008581   -0.000032
      4          6           0        0.699413   -0.635551   -0.000194
      5          6           0        1.215535    0.647471   -0.000121
      6          6           0       -0.656743   -0.872379   -0.000144
      7          6           0        2.952747   -0.797750    0.000261
      8          6           0        0.404970    1.768426    0.000116
      9          6           0       -1.498753    0.251238   -0.000004
     10          6           0       -0.974401    1.549076    0.000141
     11          6           0       -2.958361    0.067430    0.000293
     12          1           0       -1.061801   -1.881635   -0.000031
     13          1           0        3.528946   -1.027286   -0.904139
     14          1           0        3.529323   -1.027513    0.904345
     15          1           0        0.828255    2.768998    0.000286
     16          1           0       -1.651838    2.401867    0.000322
     17          1           0       -3.563641    1.000265    0.001981
 ---------------------------------------------------------------------
                    Distance matrix (angstroms):
                    1          2          3          4          5
     1  O    0.000000
     2  O    2.296567   0.000000
     3  O    5.260803   6.293972   0.000000
     4  C    1.369828   2.244834   4.223241   0.000000
     5  C    2.248356   1.365990   5.004785   1.382941   0.000000
     6  C    2.475419   3.551972   2.853829   1.376680   2.411508
     7  C    1.434594   1.436677   6.463507   2.259164   2.259772
     8  C    3.564488   2.474111   4.797686   2.421942   1.383314
     9  C    3.690173   4.093088   2.370967   2.370302   2.743057
    10  C    4.104802   3.681866   3.599624   2.752135   2.368272
    11  C    4.953501   5.563249   1.207955   3.724715   4.214008
    12  H    2.808761   4.401478   2.596688   2.157453   3.403327
    13  H    2.081488   2.081649   7.094139   2.996136   2.995652
    14  H    2.081467   2.081666   7.094547   2.996700   2.996204
    15  H    4.403640   2.796165   5.750419   3.406986   2.156586
    16  H    5.192977   4.603760   3.882522   3.841132   3.361509
    17  H    5.869215   6.157644   2.009637   4.566129   4.792181
                    6          7          8          9         10
     6  C    0.000000
     7  C    3.610262   0.000000
     8  C    2.846241   3.616135   0.000000
     9  C    1.404099   4.573427   2.434343   0.000000
    10  C    2.442201   4.574941   1.396703   1.399760   0.000000
    11  C    2.486098   5.974089   3.769004   1.471136   2.476161
    12  H    1.087507   4.158293   3.933747   2.177171   3.431824
    13  H    4.284997   1.096646   4.288696   5.265913   5.266450
    14  H    4.285477   1.096629   4.289112   5.266364   5.266870
    15  H    3.932536   4.151525   1.086422   3.428423   2.176644
    16  H    3.422119   5.607117   2.152141   2.156071   1.089117
    17  H    3.457868   6.759895   4.042271   2.196545   2.646765
                   11         12         13         14         15
    11  C    0.000000
    12  H    2.719521   0.000000
    13  H    6.640901   4.756289   0.000000
    14  H    6.641254   4.756662   1.808484   0.000000
    15  H    4.651552   5.020030   4.745892   4.746218   0.000000
    16  H    2.675183   4.323950   6.278349   6.278720   2.507119
    17  H    1.112002   3.816354   7.432147   7.432111   4.734677
                   16         17
    16  H    0.000000
    17  H    2.370545   0.000000
 Stoichiometry    C8H6O3
 Framework group  C1[X(C8H6O3)]
 Deg. of freedom    45
 Full point group                 C1      NOp   1
 Largest Abelian subgroup         C1      NOp   1
 Largest concise Abelian subgroup C1      NOp   1
                         Standard orientation:                         
 ---------------------------------------------------------------------
 Center     Atomic      Atomic             Coordinates (Angstroms)
 Number     Number       Type             X           Y           Z
 ---------------------------------------------------------------------
      1          8           0        1.733052   -1.468520    0.000284
      2          8           0        2.520199    0.688936    0.000330
      3          8           0       -3.514704   -1.098247   -0.000185
      4          6           0        0.678374   -0.594403   -0.000347
      5          6           0        1.154293    0.704069   -0.000274
      6          6           0       -0.669751   -0.873345   -0.000298
      7          6           0        2.935666   -0.686356    0.000108
      8          6           0        0.309215    1.799240   -0.000037
      9          6           0       -1.546341    0.223507   -0.000158
     10          6           0       -1.062657    1.537043   -0.000012
     11          6           0       -2.999518   -0.005663    0.000140
     12          1           0       -1.043184   -1.894726   -0.000184
     13          1           0        3.518733   -0.897838   -0.904293
     14          1           0        3.519116   -0.898053    0.904191
     15          1           0        0.701137    2.812507    0.000132
     16          1           0       -1.766321    2.368327    0.000169
     17          1           0       -3.633552    0.907872    0.001827
 ---------------------------------------------------------------------
 Rotational constants (GHZ):           2.8831323           0.7501363           0.5975808
 Standard basis: 6-311++G(d,p) (5D, 7F)
 There are   295 symmetry adapted cartesian basis functions of A   symmetry.
 There are   284 symmetry adapted basis functions of A   symmetry.
   284 basis functions,   450 primitive gaussians,   295 cartesian basis functions
    39 alpha electrons       39 beta electrons
       nuclear repulsion energy       573.6034381138 Hartrees.
 NAtoms=   17 NActive=   17 NUniq=   17 SFac= 1.00D+00 NAtFMM=   60 NAOKFM=F Big=F
 Integral buffers will be    131072 words long.
 Raffenetti 2 integral format.
 Two-electron integral symmetry is turned on.
 R6APFD:  NTU= -4 IXU= 1 FactS= 1.050
 Nuclear repulsion after empirical dispersion term =      573.5937192173 Hartrees.
 One-electron integrals computed using PRISM.
 NBasis=   284 RedAO= T EigKep=  1.26D-06  NBF=   284
 NBsUse=   283 1.00D-06 EigRej=  7.42D-07 NBFU=   283
 Initial guess from the checkpoint file:  "PERL0070.chk"
 B after Tr=     0.000000   -0.000000   -0.000000
         Rot=    0.999985   -0.000001    0.000008   -0.005505 Ang=  -0.63 deg.
 ExpMin= 3.60D-02 ExpMax= 8.59D+03 ExpMxC= 1.30D+03 IAcc=3 IRadAn=         5 AccDes= 0.00D+00
 Harris functional with IExCor= 1009 and IRadAn=       5 diagonalized for initial guess.
 HarFok:  IExCor= 1009 AccDes= 0.00D+00 IRadAn=         5 IDoV= 1 UseB2=F ITyADJ=14
 ICtDFT=  3500011 ScaDFX=  1.000000  1.000000  1.000000  1.000000
 FoFCou: FMM=F IPFlag=           0 FMFlag=      100000 FMFlg1=           0
         NFxFlg=           0 DoJE=T BraDBF=F KetDBF=T FulRan=T
         wScrn=  0.000000 ICntrl=       500 IOpCl=  0 I1Cent=   200000004 NGrid=           0
         NMat0=    1 NMatS0=      1 NMatT0=    0 NMatD0=    1 NMtDS0=    0 NMtDT0=    0
 Petite list used in FoFCou.
 Requested convergence on RMS density matrix=1.00D-08 within  32 cycles.
 Requested convergence on MAX density matrix=1.00D-06.
 Requested convergence on             energy=1.00D-06.
 No special actions if energy rises.
 SCF Done:  E(RM08HX) =  -534.075434836     A.U. after   14 cycles
            NFock= 14  Conv=0.55D-08     -V/T= 2.0041
 QCSCF skips out because SCF is already converged.
 R6APFD:  NTU= -4 IXU= 1 FactS= 1.050
 Calling FoFJK, ICntrl=      2127 FMM=F ISym2X=0 I1Cent= 0 IOpClX= 0 NMat=1 NMatS=1 NMatT=0.
 ***** Axes restored to original set *****
 -------------------------------------------------------------------
 Center     Atomic                   Forces (Hartrees/Bohr)
 Number     Number              X              Y              Z
 -------------------------------------------------------------------
      1        8           0.001646617    0.000371243   -0.000014297
      2        8          -0.000310768    0.000409988   -0.000010073
      3        8           0.003834610    0.006131159   -0.000035823
      4        6          -0.001065100   -0.010619490    0.000026873
      5        6           0.009616415    0.007086429    0.000036860
      6        6           0.005311862   -0.004772698   -0.000009207
      7        6          -0.015430888    0.005039402   -0.000012655
      8        6           0.004025585    0.000764552   -0.000016639
      9        6           0.005168209    0.006964496   -0.000031955
     10        6          -0.001536911   -0.004954903   -0.000001734
     11        6          -0.007965409   -0.009628517    0.000113341
     12        1          -0.001628505    0.000824824   -0.000000866
     13        1          -0.001049130    0.000555144   -0.000763153
     14        1          -0.001050537    0.000558012    0.000764074
     15        1           0.000505245   -0.000374593    0.000003044
     16        1          -0.000651930   -0.000237025   -0.000000049
     17        1           0.000580633    0.001881979   -0.000047742
 -------------------------------------------------------------------
 Cartesian Forces:  Max     0.015430888 RMS     0.004232657

 GradGradGradGradGradGradGradGradGradGradGradGradGradGradGradGradGradGrad
 Berny optimization.
 Using GEDIIS/GDIIS optimizer.
 FormGI is forming the generalized inverse of G from B-inverse, IUseBI=4.
 Internal  Forces:  Max     0.010375757 RMS     0.002811461
 Search for a local minimum.
 Step number   2 out of a maximum of   95
 All quantities printed in internal units (Hartrees-Bohrs-Radians)
 Mixed Optimization -- RFO/linear search
 Update second derivatives using D2CorX and points    1    2
 DE= -7.38D-03 DEPred=-9.02D-03 R= 8.18D-01
 TightC=F SS=  1.41D+00  RLast= 2.55D-01 DXNew= 5.0454D-01 7.6536D-01
 Trust test= 8.18D-01 RLast= 2.55D-01 DXMaxT set to 5.05D-01
 ITU=  1  0
 Use linear search instead of GDIIS.
     Eigenvalues ---    0.01335   0.01367   0.01367   0.01870   0.02061
     Eigenvalues ---    0.02087   0.02176   0.02230   0.02243   0.02251
     Eigenvalues ---    0.02334   0.02344   0.07589   0.09945   0.11509
     Eigenvalues ---    0.11789   0.15735   0.16000   0.16000   0.16013
     Eigenvalues ---    0.21910   0.22236   0.23388   0.24621   0.24970
     Eigenvalues ---    0.24999   0.29306   0.33190   0.34121   0.34124
     Eigenvalues ---    0.35092   0.35389   0.35496   0.36641   0.37499
     Eigenvalues ---    0.38323   0.41566   0.42999   0.45474   0.46620
     Eigenvalues ---    0.47993   0.49013   0.49486   0.56168   0.88479
 RFO step:  Lambda=-1.23605964D-03 EMin= 1.33502515D-02
 Quartic linear search produced a step of -0.11769.
 Iteration  1 RMS(Cart)=  0.01160988 RMS(Int)=  0.00005908
 Iteration  2 RMS(Cart)=  0.00004439 RMS(Int)=  0.00003991
 Iteration  3 RMS(Cart)=  0.00000000 RMS(Int)=  0.00003991
 Variable       Old X    -DE/DX   Delta X   Delta X   Delta X     New X
                                 (Linear)    (Quad)   (Total)
    R1        2.58860  -0.00768  -0.00196  -0.00902  -0.01096   2.57764
    R2        2.71099  -0.00624   0.00169  -0.01829  -0.01661   2.69438
    R3        2.58135  -0.00895  -0.00113  -0.01263  -0.01376   2.56759
    R4        2.71493  -0.00539   0.00120  -0.01565  -0.01447   2.70046
    R5        2.28270  -0.00720   0.00455  -0.01443  -0.00988   2.27283
    R6        2.61338   0.00980  -0.00152   0.02205   0.02056   2.63394
    R7        2.60155  -0.00405   0.00069  -0.00803  -0.00734   2.59421
    R8        2.61408  -0.00343  -0.00082  -0.00441  -0.00523   2.60886
    R9        2.65336   0.00152  -0.00159   0.00517   0.00357   2.65694
   R10        2.05509  -0.00016  -0.00058   0.00059   0.00000   2.05509
   R11        2.07236  -0.00004  -0.00013   0.00012  -0.00001   2.07235
   R12        2.07233  -0.00004  -0.00013   0.00012  -0.00001   2.07232
   R13        2.63939   0.00161   0.00005   0.00260   0.00265   2.64203
   R14        2.05304  -0.00015  -0.00053   0.00052  -0.00001   2.05303
   R15        2.64516  -0.00306   0.00140  -0.00915  -0.00775   2.63742
   R16        2.78004   0.00373  -0.00369   0.01491   0.01121   2.79126
   R17        2.05813   0.00022  -0.00035   0.00114   0.00079   2.05892
   R18        2.10138   0.00126  -0.00179   0.00634   0.00456   2.10594
    A1        1.87289  -0.00572  -0.01295   0.00060  -0.01239   1.86050
    A2        1.87525  -0.00603  -0.01321  -0.00054  -0.01379   1.86146
    A3        1.91154   0.00017   0.00575  -0.00684  -0.00108   1.91045
    A4        2.24550  -0.00049  -0.00561   0.00453  -0.00108   2.24442
    A5        2.12615   0.00032  -0.00014   0.00231   0.00217   2.12831
    A6        1.91104   0.00121   0.00580  -0.00351   0.00230   1.91333
    A7        2.23908  -0.00139  -0.00484   0.00017  -0.00468   2.23440
    A8        2.13307   0.00018  -0.00096   0.00335   0.00239   2.13545
    A9        2.04101  -0.00215   0.00146  -0.01013  -0.00867   2.03234
   A10        2.12535   0.00294  -0.00279   0.01889   0.01610   2.14144
   A11        2.11683  -0.00079   0.00133  -0.00876  -0.00742   2.10941
   A12        1.85407   0.01038   0.01460   0.01028   0.02497   1.87904
   A13        1.91842  -0.00279  -0.00256  -0.00513  -0.00752   1.91091
   A14        1.91841  -0.00279  -0.00256  -0.00515  -0.00753   1.91088
   A15        1.91611  -0.00302  -0.00229  -0.00731  -0.00945   1.90665
   A16        1.91615  -0.00302  -0.00228  -0.00737  -0.00950   1.90664
   A17        1.93884   0.00155  -0.00486   0.01431   0.00956   1.94840
   A18        2.03916  -0.00205   0.00168  -0.01013  -0.00845   2.03071
   A19        2.11532   0.00040   0.00066  -0.00097  -0.00031   2.11500
   A20        2.12871   0.00165  -0.00233   0.01110   0.00876   2.13747
   A21        2.11452   0.00212  -0.00115   0.00819   0.00704   2.12156
   A22        2.08863  -0.00182   0.00015  -0.00604  -0.00589   2.08274
   A23        2.08003  -0.00030   0.00100  -0.00215  -0.00115   2.07889
   A24        2.11247   0.00158  -0.00089   0.00642   0.00553   2.11800
   A25        2.08440  -0.00011  -0.00114   0.00328   0.00214   2.08654
   A26        2.08632  -0.00147   0.00203  -0.00970  -0.00767   2.07865
   A27        2.16782   0.00009   0.00288  -0.00456  -0.00169   2.16614
   A28        2.09426   0.00154  -0.00169   0.01140   0.00971   2.10397
   A29        2.02110  -0.00163  -0.00119  -0.00684  -0.00802   2.01307
    D1       -0.00049   0.00000  -0.00000   0.00001   0.00001  -0.00049
    D2       -3.14145  -0.00001   0.00005  -0.00047  -0.00042   3.14132
    D3        0.00072   0.00000  -0.00000   0.00004   0.00004   0.00076
    D4       -2.07124  -0.00087  -0.00454   0.00557   0.00105  -2.07019
    D5        2.07272   0.00087   0.00454  -0.00556  -0.00103   2.07169
    D6        0.00040  -0.00000  -0.00001   0.00007   0.00006   0.00046
    D7        3.14133   0.00001  -0.00006   0.00059   0.00052  -3.14134
    D8       -0.00068  -0.00000   0.00001  -0.00007  -0.00007  -0.00075
    D9        2.07279   0.00101   0.00436  -0.00418   0.00013   2.07293
   D10       -2.07417  -0.00101  -0.00435   0.00408  -0.00022  -2.07439
   D11        0.00006  -0.00000   0.00001  -0.00005  -0.00004   0.00002
   D12       -3.14092  -0.00001   0.00006  -0.00053  -0.00047  -3.14138
   D13        3.14107   0.00001  -0.00004   0.00039   0.00035   3.14142
   D14        0.00010  -0.00000   0.00001  -0.00009  -0.00008   0.00002
   D15        3.14088   0.00001  -0.00009   0.00067   0.00058   3.14146
   D16       -0.00052   0.00001  -0.00003   0.00033   0.00030  -0.00022
   D17       -0.00001   0.00000  -0.00004   0.00015   0.00011   0.00010
   D18       -3.14141  -0.00000   0.00003  -0.00019  -0.00017  -3.14158
   D19       -3.14096  -0.00001   0.00007  -0.00057  -0.00050  -3.14146
   D20        0.00062  -0.00001   0.00004  -0.00045  -0.00041   0.00021
   D21       -0.00011   0.00000   0.00001  -0.00000   0.00001  -0.00010
   D22        3.14147   0.00000  -0.00001   0.00012   0.00011   3.14158
   D23       -0.00005  -0.00000   0.00004  -0.00013  -0.00009  -0.00014
   D24       -3.14141  -0.00000   0.00006  -0.00028  -0.00022   3.14156
   D25        3.14135   0.00000  -0.00002   0.00021   0.00019   3.14154
   D26       -0.00001   0.00000  -0.00000   0.00006   0.00005   0.00005
   D27        0.00005   0.00000  -0.00001   0.00002   0.00001   0.00007
   D28       -3.14159   0.00000  -0.00002   0.00010   0.00007  -3.14152
   D29       -3.14153  -0.00000   0.00002  -0.00010  -0.00008   3.14157
   D30        0.00001  -0.00000   0.00000  -0.00003  -0.00002  -0.00001
   D31        0.00003   0.00000  -0.00002   0.00005   0.00002   0.00005
   D32       -3.14151  -0.00000  -0.00001  -0.00003  -0.00004  -3.14155
   D33        3.14139   0.00000  -0.00004   0.00020   0.00016   3.14155
   D34       -0.00016   0.00000  -0.00002   0.00012   0.00010  -0.00006
   D35       -0.00046  -0.00003  -0.00014  -0.00158  -0.00173  -0.00219
   D36        3.14000   0.00005   0.00006   0.00266   0.00272  -3.14046
   D37        3.14136  -0.00004  -0.00013  -0.00173  -0.00186   3.13950
   D38       -0.00136   0.00005   0.00008   0.00251   0.00258   0.00123
         Item               Value     Threshold  Converged?
 Maximum Force            0.010376     0.000450     NO 
 RMS     Force            0.002811     0.000300     NO 
 Maximum Displacement     0.045156     0.001800     NO 
 RMS     Displacement     0.011614     0.001200     NO 
 Predicted change in Energy=-7.553113D-04
 GradGradGradGradGradGradGradGradGradGradGradGradGradGradGradGradGradGrad

                          Input orientation:                          
 ---------------------------------------------------------------------
 Center     Atomic      Atomic             Coordinates (Angstroms)
 Number     Number       Type             X           Y           Z
 ---------------------------------------------------------------------
      1          8           0        1.723856   -1.544909    0.000574
      2          8           0        2.578033    0.595581    0.000300
      3          8           0       -3.498398   -1.007542   -0.001065
      4          6           0        0.700257   -0.643348    0.000468
      5          6           0        1.220405    0.649779    0.000315
      6          6           0       -0.651552   -0.882474    0.000723
      7          6           0        2.932630   -0.788746   -0.000179
      8          6           0        0.414101    1.770399    0.000427
      9          6           0       -1.487387    0.248096    0.000692
     10          6           0       -0.965291    1.542424    0.000579
     11          6           0       -2.952990    0.064409    0.000910
     12          1           0       -1.070600   -1.886004    0.000860
     13          1           0        3.505051   -1.014903   -0.907819
     14          1           0        3.506322   -1.015190    0.906564
     15          1           0        0.840057    2.769832    0.000320
     16          1           0       -1.649984    2.389938    0.000599
     17          1           0       -3.551509    1.004459   -0.000268
 ---------------------------------------------------------------------
                    Distance matrix (angstroms):
                    1          2          3          4          5
     1  O    0.000000
     2  O    2.304630   0.000000
     3  O    5.249829   6.284347   0.000000
     4  C    1.364026   2.249664   4.214421   0.000000
     5  C    2.251693   1.358710   5.001381   1.393819   0.000000
     6  C    2.466046   3.551741   2.849593   1.372795   2.419094
     7  C    1.425804   1.429021   6.434749   2.237103   2.236307
     8  C    3.564650   2.462275   4.798397   2.430650   1.380548
     9  C    3.677900   4.080243   2.370822   2.362299   2.737423
    10  C    4.094281   3.667650   3.594296   2.748027   2.360949
    11  C    4.945988   5.556470   1.202727   3.721174   4.214248
    12  H    2.815197   4.412572   2.581841   2.163360   3.417440
    13  H    2.068511   2.068260   7.061909   2.971516   2.969087
    14  H    2.068479   2.068241   7.063282   2.972084   2.969652
    15  H    4.404327   2.783510   5.752456   3.416042   2.153901
    16  H    5.183225   4.593021   3.867752   3.837246   3.356678
    17  H    5.859075   6.143164   2.012702   4.559910   4.785077
                    6          7          8          9         10
     6  C    0.000000
     7  C    3.585407   0.000000
     8  C    2.858907   3.590572   0.000000
     9  C    1.405990   4.539999   2.435788   0.000000
    10  C    2.445110   4.541821   1.398104   1.395661   0.000000
    11  C    2.488616   5.947134   3.774614   1.477069   2.476990
    12  H    1.087509   4.150883   3.946343   2.174418   3.430045
    13  H    4.256798   1.096641   4.258730   5.229244   5.229633
    14  H    4.257473   1.096624   4.259392   5.230070   5.230442
    15  H    3.945153   4.128237   1.086418   3.431639   2.183074
    16  H    3.421336   5.577130   2.155059   2.148004   1.089534
    17  H    3.459808   6.727529   4.038902   2.198337   2.641578
                   11         12         13         14         15
    11  C    0.000000
    12  H    2.710628   0.000000
    13  H    6.610371   4.745640   0.000000
    14  H    6.611238   4.746245   1.814384   0.000000
    15  H    4.659026   5.032636   4.717110   4.717695   0.000000
    16  H    2.665691   4.315016   6.244401   6.245251   2.518854
    17  H    1.114414   3.809158   7.395709   7.396912   4.733117
                   16         17
    16  H    0.000000
    17  H    2.352733   0.000000
 Stoichiometry    C8H6O3
 Framework group  C1[X(C8H6O3)]
 Deg. of freedom    45
 Full point group                 C1      NOp   1
 Largest Abelian subgroup         C1      NOp   1
 Largest concise Abelian subgroup C1      NOp   1
                         Standard orientation:                         
 ---------------------------------------------------------------------
 Center     Atomic      Atomic             Coordinates (Angstroms)
 Number     Number       Type             X           Y           Z
 ---------------------------------------------------------------------
      1          8           0        1.724382   -1.475656    0.000288
      2          8           0        2.517676    0.688138    0.000013
      3          8           0       -3.510982   -1.086209   -0.001351
      4          6           0        0.675692   -0.603407    0.000182
      5          6           0        1.159058    0.703915    0.000028
      6          6           0       -0.668812   -0.880671    0.000436
      7          6           0        2.911285   -0.685606   -0.000466
      8          6           0        0.321382    1.801281    0.000141
      9          6           0       -1.536290    0.225806    0.000406
     10          6           0       -1.051011    1.534383    0.000293
     11          6           0       -2.996111    0.000740    0.000624
     12          1           0       -1.059309   -1.895652    0.000573
     13          1           0        3.489873   -0.895482   -0.908105
     14          1           0        3.491152   -0.895734    0.906278
     15          1           0        0.718899    2.812362    0.000033
     16          1           0       -1.759401    2.362192    0.000313
     17          1           0       -3.620979    0.923485   -0.000554
 ---------------------------------------------------------------------
 Rotational constants (GHZ):           2.8802350           0.7546264           0.6003165
 Standard basis: 6-311++G(d,p) (5D, 7F)
 There are   295 symmetry adapted cartesian basis functions of A   symmetry.
 There are   284 symmetry adapted basis functions of A   symmetry.
   284 basis functions,   450 primitive gaussians,   295 cartesian basis functions
    39 alpha electrons       39 beta electrons
       nuclear repulsion energy       574.6135008534 Hartrees.
 NAtoms=   17 NActive=   17 NUniq=   17 SFac= 1.00D+00 NAtFMM=   60 NAOKFM=F Big=F
 Integral buffers will be    131072 words long.
 Raffenetti 2 integral format.
 Two-electron integral symmetry is turned on.
 R6APFD:  NTU= -4 IXU= 1 FactS= 1.050
 Nuclear repulsion after empirical dispersion term =      574.6037495214 Hartrees.
 One-electron integrals computed using PRISM.
 NBasis=   284 RedAO= T EigKep=  1.22D-06  NBF=   284
 NBsUse=   283 1.00D-06 EigRej=  7.34D-07 NBFU=   283
 Initial guess from the checkpoint file:  "PERL0070.chk"
 B after Tr=     0.000000   -0.000000    0.000000
         Rot=    0.999999   -0.000050    0.000004    0.001309 Ang=  -0.15 deg.
 ExpMin= 3.60D-02 ExpMax= 8.59D+03 ExpMxC= 1.30D+03 IAcc=3 IRadAn=         5 AccDes= 0.00D+00
 Harris functional with IExCor= 1009 and IRadAn=       5 diagonalized for initial guess.
 HarFok:  IExCor= 1009 AccDes= 0.00D+00 IRadAn=         5 IDoV= 1 UseB2=F ITyADJ=14
 ICtDFT=  3500011 ScaDFX=  1.000000  1.000000  1.000000  1.000000
 FoFCou: FMM=F IPFlag=           0 FMFlag=      100000 FMFlg1=           0
         NFxFlg=           0 DoJE=T BraDBF=F KetDBF=T FulRan=T
         wScrn=  0.000000 ICntrl=       500 IOpCl=  0 I1Cent=   200000004 NGrid=           0
         NMat0=    1 NMatS0=      1 NMatT0=    0 NMatD0=    1 NMtDS0=    0 NMtDT0=    0
 Petite list used in FoFCou.
 Requested convergence on RMS density matrix=1.00D-08 within  32 cycles.
 Requested convergence on MAX density matrix=1.00D-06.
 Requested convergence on             energy=1.00D-06.
 No special actions if energy rises.
 SCF Done:  E(RM08HX) =  -534.076305089     A.U. after   13 cycles
            NFock= 13  Conv=0.57D-08     -V/T= 2.0040
 QCSCF skips out because SCF is already converged.
 R6APFD:  NTU= -4 IXU= 1 FactS= 1.050
 Calling FoFJK, ICntrl=      2127 FMM=F ISym2X=0 I1Cent= 0 IOpClX= 0 NMat=1 NMatS=1 NMatT=0.
 ***** Axes restored to original set *****
 -------------------------------------------------------------------
 Center     Atomic                   Forces (Hartrees/Bohr)
 Number     Number              X              Y              Z
 -------------------------------------------------------------------
      1        8           0.000530261    0.001210328   -0.000000684
      2        8          -0.001211814   -0.000319718   -0.000000290
      3        8          -0.000194782   -0.000136010    0.000142324
      4        6          -0.001341366   -0.003034340    0.000002887
      5        6           0.001880185    0.003022260    0.000009467
      6        6           0.002582159   -0.001909920   -0.000009789
      7        6          -0.002400336    0.000271008    0.000002314
      8        6           0.002547940   -0.000687161   -0.000019443
      9        6           0.001171200    0.004274665    0.000122446
     10        6          -0.002519540   -0.002018167    0.000008999
     11        6          -0.001154195   -0.001327944   -0.000390572
     12        1          -0.000500832    0.000511636    0.000001342
     13        1           0.000225917   -0.000062144    0.000161635
     14        1           0.000227692   -0.000062346   -0.000165333
     15        1          -0.000007540   -0.000288499    0.000001003
     16        1          -0.000216716    0.000001579    0.000004889
     17        1           0.000381768    0.000554773    0.000128807
 -------------------------------------------------------------------
 Cartesian Forces:  Max     0.004274665 RMS     0.001289400

 GradGradGradGradGradGradGradGradGradGradGradGradGradGradGradGradGradGrad
 Berny optimization.
 Using GEDIIS/GDIIS optimizer.
 FormGI is forming the generalized inverse of G from B-inverse, IUseBI=4.
 Internal  Forces:  Max     0.002107057 RMS     0.000606628
 Search for a local minimum.
 Step number   3 out of a maximum of   95
 All quantities printed in internal units (Hartrees-Bohrs-Radians)
 Mixed Optimization -- En-DIIS/RFO-DIIS
 Update second derivatives using D2CorX and points    1    2    3
 DE= -8.70D-04 DEPred=-7.55D-04 R= 1.15D+00
 TightC=F SS=  1.41D+00  RLast= 6.26D-02 DXNew= 8.4853D-01 1.8778D-01
 Trust test= 1.15D+00 RLast= 6.26D-02 DXMaxT set to 5.05D-01
 ITU=  1  1  0
 Use linear search instead of GDIIS.
     Eigenvalues ---    0.01330   0.01367   0.01370   0.01872   0.02061
     Eigenvalues ---    0.02087   0.02175   0.02230   0.02243   0.02252
     Eigenvalues ---    0.02334   0.02344   0.07472   0.10047   0.11666
     Eigenvalues ---    0.11945   0.14777   0.16000   0.16000   0.16017
     Eigenvalues ---    0.22039   0.22336   0.23174   0.24554   0.24906
     Eigenvalues ---    0.25003   0.28826   0.33053   0.34113   0.34124
     Eigenvalues ---    0.34322   0.35133   0.35425   0.35529   0.37575
     Eigenvalues ---    0.38385   0.41413   0.43040   0.44247   0.46504
     Eigenvalues ---    0.48049   0.48508   0.49489   0.54081   0.90291
 RFO step:  Lambda=-7.14029637D-05 EMin= 1.32966060D-02
 Quartic linear search produced a step of  0.17609.
 Iteration  1 RMS(Cart)=  0.00331185 RMS(Int)=  0.00002631
 Iteration  2 RMS(Cart)=  0.00002461 RMS(Int)=  0.00001452
 Iteration  3 RMS(Cart)=  0.00000000 RMS(Int)=  0.00001452
 Variable       Old X    -DE/DX   Delta X   Delta X   Delta X     New X
                                 (Linear)    (Quad)   (Total)
    R1        2.57764  -0.00122  -0.00193  -0.00085  -0.00278   2.57485
    R2        2.69438  -0.00122  -0.00292  -0.00216  -0.00508   2.68930
    R3        2.56759  -0.00186  -0.00242  -0.00211  -0.00454   2.56305
    R4        2.70046  -0.00054  -0.00255  -0.00032  -0.00286   2.69760
    R5        2.27283   0.00021  -0.00174   0.00081  -0.00093   2.27190
    R6        2.63394   0.00211   0.00362   0.00309   0.00670   2.64064
    R7        2.59421  -0.00132  -0.00129  -0.00230  -0.00360   2.59061
    R8        2.60886  -0.00137  -0.00092  -0.00243  -0.00336   2.60550
    R9        2.65694   0.00165   0.00063   0.00402   0.00465   2.66158
   R10        2.05509  -0.00028   0.00000  -0.00084  -0.00084   2.05425
   R11        2.07235  -0.00000  -0.00000   0.00001   0.00001   2.07236
   R12        2.07232  -0.00000  -0.00000   0.00001   0.00001   2.07232
   R13        2.64203   0.00178   0.00047   0.00420   0.00466   2.64670
   R14        2.05303  -0.00027  -0.00000  -0.00082  -0.00082   2.05222
   R15        2.63742  -0.00208  -0.00136  -0.00491  -0.00628   2.63114
   R16        2.79126   0.00107   0.00197   0.00254   0.00452   2.79577
   R17        2.05892   0.00014   0.00014   0.00042   0.00056   2.05948
   R18        2.10594   0.00026   0.00080   0.00063   0.00143   2.10737
    A1        1.86050  -0.00020  -0.00218   0.00259   0.00041   1.86090
    A2        1.86146  -0.00022  -0.00243   0.00245   0.00002   1.86148
    A3        1.91045  -0.00032  -0.00019  -0.00166  -0.00186   1.90859
    A4        2.24442   0.00047  -0.00019   0.00263   0.00244   2.24686
    A5        2.12831  -0.00015   0.00038  -0.00096  -0.00058   2.12773
    A6        1.91333  -0.00014   0.00040  -0.00136  -0.00097   1.91237
    A7        2.23440   0.00009  -0.00082   0.00119   0.00037   2.23477
    A8        2.13545   0.00005   0.00042   0.00017   0.00059   2.13604
    A9        2.03234  -0.00021  -0.00153   0.00001  -0.00152   2.03081
   A10        2.14144   0.00078   0.00283   0.00377   0.00661   2.14805
   A11        2.10941  -0.00057  -0.00131  -0.00378  -0.00508   2.10432
   A12        1.87904   0.00087   0.00440  -0.00202   0.00240   1.88144
   A13        1.91091  -0.00011  -0.00132   0.00179   0.00046   1.91137
   A14        1.91088  -0.00011  -0.00133   0.00182   0.00049   1.91137
   A15        1.90665  -0.00017  -0.00166   0.00148  -0.00019   1.90646
   A16        1.90664  -0.00017  -0.00167   0.00150  -0.00017   1.90647
   A17        1.94840  -0.00027   0.00168  -0.00449  -0.00281   1.94558
   A18        2.03071  -0.00001  -0.00149   0.00104  -0.00045   2.03026
   A19        2.11500  -0.00010  -0.00006  -0.00094  -0.00099   2.11401
   A20        2.13747   0.00011   0.00154  -0.00010   0.00144   2.13892
   A21        2.12156   0.00051   0.00124   0.00152   0.00276   2.12433
   A22        2.08274  -0.00059  -0.00104  -0.00199  -0.00302   2.07971
   A23        2.07889   0.00008  -0.00020   0.00046   0.00026   2.07915
   A24        2.11800  -0.00018   0.00097  -0.00177  -0.00080   2.11720
   A25        2.08654   0.00027   0.00038   0.00180   0.00218   2.08871
   A26        2.07865  -0.00008  -0.00135  -0.00003  -0.00138   2.07727
   A27        2.16614   0.00060  -0.00030   0.00300   0.00263   2.16877
   A28        2.10397   0.00035   0.00171   0.00220   0.00384   2.10781
   A29        2.01307  -0.00095  -0.00141  -0.00514  -0.00662   2.00645
    D1       -0.00049  -0.00000   0.00000  -0.00006  -0.00006  -0.00054
    D2        3.14132  -0.00000  -0.00007  -0.00012  -0.00020   3.14112
    D3        0.00076   0.00000   0.00001   0.00008   0.00009   0.00085
    D4       -2.07019  -0.00024   0.00018  -0.00152  -0.00133  -2.07152
    D5        2.07169   0.00024  -0.00018   0.00173   0.00155   2.07323
    D6        0.00046   0.00000   0.00001   0.00005   0.00006   0.00051
    D7       -3.14134   0.00000   0.00009   0.00011   0.00020  -3.14114
    D8       -0.00075  -0.00000  -0.00001  -0.00008  -0.00009  -0.00084
    D9        2.07293   0.00027   0.00002   0.00172   0.00174   2.07467
   D10       -2.07439  -0.00027  -0.00004  -0.00193  -0.00196  -2.07636
   D11        0.00002   0.00000  -0.00001   0.00001  -0.00000   0.00002
   D12       -3.14138  -0.00000  -0.00008  -0.00005  -0.00013  -3.14151
   D13        3.14142   0.00000   0.00006   0.00007   0.00013   3.14155
   D14        0.00002  -0.00000  -0.00001   0.00001  -0.00000   0.00002
   D15        3.14146   0.00000   0.00010  -0.00002   0.00008   3.14154
   D16       -0.00022   0.00000   0.00005  -0.00004   0.00001  -0.00020
   D17        0.00010  -0.00000   0.00002  -0.00010  -0.00008   0.00002
   D18       -3.14158  -0.00000  -0.00003  -0.00011  -0.00014   3.14147
   D19       -3.14146   0.00000  -0.00009   0.00010   0.00001  -3.14145
   D20        0.00021  -0.00000  -0.00007  -0.00008  -0.00015   0.00007
   D21       -0.00010   0.00000   0.00000   0.00017   0.00017   0.00007
   D22        3.14158   0.00000   0.00002  -0.00001   0.00001   3.14158
   D23       -0.00014  -0.00000  -0.00002  -0.00000  -0.00002  -0.00015
   D24        3.14156  -0.00001  -0.00004  -0.00034  -0.00038   3.14118
   D25        3.14154   0.00000   0.00003   0.00001   0.00005   3.14159
   D26        0.00005  -0.00001   0.00001  -0.00032  -0.00031  -0.00027
   D27        0.00007  -0.00000   0.00000  -0.00026  -0.00026  -0.00019
   D28       -3.14152  -0.00000   0.00001  -0.00013  -0.00011   3.14155
   D29        3.14157  -0.00000  -0.00001  -0.00008  -0.00010   3.14148
   D30       -0.00001   0.00000  -0.00000   0.00005   0.00005   0.00004
   D31        0.00005   0.00000   0.00000   0.00019   0.00019   0.00025
   D32       -3.14155   0.00000  -0.00001   0.00005   0.00005  -3.14150
   D33        3.14155   0.00001   0.00003   0.00052   0.00055  -3.14109
   D34       -0.00006   0.00001   0.00002   0.00039   0.00041   0.00035
   D35       -0.00219   0.00014  -0.00030   0.01222   0.01192   0.00973
   D36       -3.14046  -0.00012   0.00048  -0.01113  -0.01065   3.13207
   D37        3.13950   0.00013  -0.00033   0.01190   0.01157  -3.13212
   D38        0.00123  -0.00013   0.00046  -0.01146  -0.01100  -0.00978
         Item               Value     Threshold  Converged?
 Maximum Force            0.002107     0.000450     NO 
 RMS     Force            0.000607     0.000300     NO 
 Maximum Displacement     0.011417     0.001800     NO 
 RMS     Displacement     0.003316     0.001200     NO 
 Predicted change in Energy=-5.639038D-05
 GradGradGradGradGradGradGradGradGradGradGradGradGradGradGradGradGradGrad

                          Input orientation:                          
 ---------------------------------------------------------------------
[...]
   zz         0.131065D+03      0.194218D+02      0.216097D+02

 ----------------------------------------------------------------------
 1\1\GINC-PITOMBA\Freq\RM08HX\6-311++G(d,p)\C8H6O3\VALTER\10-Oct-2025\0
 \\#N Geom=AllCheck Guess=TCheck SCRF=Check GenChk RM08HX/6-311++G(d,p)
  Freq\\PERL0070\\0,1\O,1.7251638366,-1.544047135,0.0006595178\O,2.5757
 751916,0.5959833081,0.0007590815\O,-3.4986939155,-1.0081663229,0.00050
 86456\C,0.699804717,-0.6470423972,0.0004354208\C,1.2209870623,0.651048
 4471,0.0005101149\C,-0.6493824338,-0.8853557429,0.0002587308\C,2.92966
 51648,-0.7869863137,-0.0000252646\C,0.4165575145,1.7697548622,0.000423
 3085\C,-1.4848093327,0.2500022194,0.0001363204\C,-0.9662445694,1.54113
 68223,0.0002401325\C,-2.9526264497,0.0628130621,-0.0001793962\H,-1.077
 6262534,-1.8844985401,0.0001771533\H,3.5045793906,-1.0124101829,-0.906
 5200565\H,3.5059947889,-1.0130663421,0.9053758183\H,0.8433238268,2.768
 3927152,0.0005008452\H,-1.6526048504,2.3876345178,0.0001559059\H,-3.54
 68636881,1.0066070228,0.0005837217\\Version=ES64L-G16RevB.01\State=1-A
 \HF=-534.0763696\RMSD=3.119e-09\RMSF=1.669e-04\ZeroPoint=0.1254004\The
 rmal=0.1331577\Dipole=1.2813788,0.820427,-0.0007658\DipoleDeriv=-1.434
 2,0.3969616,0.0002418,0.5735261,-0.7465952,0.0001703,-0.0000875,0.0002
 044,-0.2176083,-1.8432886,0.2776214,0.0000189,0.2781269,-0.6123704,-0.
 0003081,-0.0003362,-0.0001897,-0.2188215,-1.0877069,-0.3143988,-0.0000
 694,-0.7369356,-0.9481714,-0.0001102,0.0003316,0.0003081,-0.3444127,0.
 5759584,-0.5850853,0.0001937,-1.2150299,0.4939699,-0.000118,0.0002016,
 -0.0001167,0.0443942,1.6717411,-0.2323416,0.0002357,0.2528025,0.030356
 1,-0.0000577,0.0004073,-0.0001018,0.0695914,0.1055317,0.2147244,-0.000
 0506,-0.1498595,-0.007156,0.0000016,-0.0000666,-0.0000267,-0.1184757,1
 .2492648,-0.1783594,-0.0005633,-0.2639838,0.7979534,0.0002164,-0.00056
 8,0.0002424,0.5827896,-0.264996,0.0301911,-0.0000587,0.2564981,0.04866
 18,0.0000827,-0.0000042,0.0000653,-0.1721566,-1.0087392,-0.2437752,-0.
 0000109,0.0694312,-0.0941249,-0.0001059,-0.0001797,-0.0000141,-0.04527
 79,0.1563753,0.0678878,0.0001047,0.1172878,0.0163097,0.0000422,-0.0000
 9,-0.0000467,-0.1316149,1.9191903,0.3675872,0.0001107,0.5026798,1.0458
 373,0.0001485,-0.000125,0.0000118,0.1872312,0.1192235,-0.0169477,-0.00
 00092,0.0132082,0.0502275,-0.0000061,0.0000073,-0.0000047,0.1555879,-0
 .0794963,0.0444586,0.0326992,0.0581298,0.0300962,-0.0110503,0.1414181,
 -0.0507527,-0.0846919,-0.0795797,0.044521,-0.0327704,0.0581998,0.03014
 73,0.0111025,-0.1410667,0.050674,-0.0842137,0.0539989,-0.0423762,-0.00
 00115,-0.0476356,0.0106384,-0.0000082,0.0000286,-0.0000199,0.1594278,0
 .0115742,0.0809974,-0.0000152,0.0577543,0.0183904,0.0000086,-0.0000308
 ,-0.0000055,0.148596,-0.0648517,0.0883337,-0.0000455,0.1757999,-0.1641
 7,-0.0000081,0.00016,-0.0002275,0.069655\Polar=143.5936631,-0.6504526,
 102.5348578,-0.0025189,0.0007292,56.4993771\Quadrupole=-1.4681552,1.63
 49032,-0.166748,-7.9952806,-0.0005604,0.0012323\PG=C01 [X(C8H6O3)]\NIm
 ag=1\\0.45103805,-0.04867480,0.40610761,-0.00012261,-0.00012143,0.0567
 3850,0.02450561,-0.01754749,-0.00001493,0.48559173,-0.04492724,-0.0435
 4159,-0.00001326,-0.01732790,0.37440797,-0.00000622,0.00001657,-0.0020
 7604,0.00001043,0.00019156,0.05883141,-0.00129792,0.00156650,-0.000000
 25,-0.00543426,0.00117129,-0.00000227,0.24810879,-0.00137547,0.0020545
 9,-0.00000066,-0.00583381,0.00151198,-0.00000270,0.32118632,0.71991385
 ,0.00000119,-0.00000121,0.00019464,0.00000175,-0.00000019,0.00014610,-
 0.00019583,-0.00036083,0.02451774,-0.17886769,0.07056720,-0.00000927,-
 0.08938226,-0.01630690,-0.00002508,0.00126391,-0.00346378,0.00000192,0
 .84861180,0.11497417,-0.19758541,0.00003739,-0.02164287,-0.02289708,-0
 .00000703,-0.00428292,-0.00322910,0.00000198,0.04773771,0.63591343,0.0
 0000032,0.00004863,-0.03130142,-0.00002979,0.00000102,0.01534526,-0.00
 000028,-0.00000205,-0.00073994,0.00006883,-0.00001201,0.12634016,-0.04
 002857,0.02974195,-0.00001326,-0.28716546,0.00805577,-0.00003920,0.004
 67596,0.00594604,-0.00000252,-0.09742317,-0.11981831,0.00001454,0.6809
 8357,0.03187275,-0.07119711,0.00001408,-0.03519443,-0.10067354,-0.0000
 2577,-0.00175558,0.00063502,-0.00000146,-0.02043880,-0.25930691,-0.000
 01172,-0.10247521,0.78244597,-0.00001863,0.00001176,0.01348744,-0.0000
 4465,-0.00003773,-0.03429076,0.00000280,0.00000282,-0.00009559,0.00001
 509,-0.00002177,-0.06760051,0.00006426,0.00002092,0.13321688,-0.035841
 42,0.00010912,-0.00000255,0.01699196,0.00034397,0.00000687,0.00313417,
 0.00775891,-0.00000479,-0.37587763,-0.02669463,-0.00003813,-0.02354213
 ,-0.08337373,-0.00001013,0.72629728,0.03624284,0.01824068,-0.00000256,
 -0.00784163,-0.00570469,0.00000074,-0.00322141,-0.00723788,0.00000376,
 -0.09965545,-0.15183756,-0.00001118,-0.02798270,0.03070934,-0.00000365
 ,0.06562249,0.72124964,-0.00000320,-0.00000100,0.00391049,-0.00000141,
 0.00000203,0.00440755,0.00000027,-0.00000354,-0.00056734,-0.00003899,-
 0.00000340,-0.05094710,-0.00000289,-0.00001023,-0.00208121,0.00009311,
 0.00001259,0.11894384,-0.17085465,-0.02162364,0.00009725,-0.11395990,0
 .01333925,0.00002035,0.00130067,0.00074923,-0.00000031,-0.07401573,0.0
 0705942,-0.00000381,-0.01792686,0.04013139,0.00001947,0.00211868,0.002
 21636,-0.00000108,0.60583339,-0.04314560,-0.12072092,0.00006962,0.0329
 5063,-0.17021040,-0.00011863,-0.00172768,-0.00207179,0.00000038,-0.021
 84011,0.02980130,-0.00002988,0.06954256,-0.02429331,0.00002360,0.01078
 243,-0.00927730,-0.00000262,-0.08992616,0.40411983,0.00010535,0.000039
 11,-0.06951005,0.00004810,-0.00010504,-0.07003527,-0.00000084,-0.00000
 052,0.00003128,-0.00002137,0.00000186,-0.00424603,-0.00001066,0.000011
 90,-0.00331535,0.00000221,0.00000258,0.00143668,0.00011896,-0.00006455
 ,0.63651437,0.00764305,-0.01339224,0.00000339,-0.03153915,0.04456539,0
 .00000263,-0.00429214,-0.00279818,0.00000034,0.06008829,0.05268443,0.0
 0000535,-0.19054895,0.06381654,-0.00002205,-0.05403011,0.02664354,-0.0
 0000697,-0.00853587,-0.01041102,-0.00000091,0.66518078,-0.00552769,0.0
 0070575,-0.00000507,0.00996062,0.01101692,0.00000519,-0.00096751,0.002
 04319,0.00000164,-0.00046450,-0.04735496,0.00000473,0.13774457,-0.3107
 8849,0.00000970,0.01592012,-0.00958991,0.00000266,-0.00238051,0.002596
 72,-0.00000375,0.02532074,0.76702702,-0.00000204,-0.00000220,0.0044860
 6,-0.00000150,0.00000623,0.00407216,-0.00000353,-0.00000187,-0.0019798
 9,0.00000897,0.00000744,-0.00098531,-0.00001511,-0.00000370,-0.0527664
 9,-0.00000899,0.00000388,0.00402980,0.00000034,0.00000099,0.00193392,0
 .00007178,0.00001771,0.11502368,0.00128385,-0.00283132,0.00000194,-0.0
 1744211,0.00337963,-0.00000964,-0.02949399,-0.04665699,0.00001033,-0.0
 5220482,0.01393685,-0.00001217,0.02632543,0.00611550,0.00001054,-0.170
 04905,0.11104885,-0.00002593,-0.00027846,-0.00544265,-0.00000292,-0.02
 099154,-0.02658199,-0.00000405,0.62016838,-0.00628111,-0.00662603,0.00
 000585,0.00650308,0.00376831,0.00000634,-0.05262578,-0.01090955,0.0000
 1773,0.06831765,0.05886217,0.00000796,0.00295288,-0.07629588,-0.000006
 75,0.05808404,-0.24880254,0.00001262,-0.00103524,0.00253632,0.00000152
 ,-0.07935651,0.01714987,-0.00001175,0.00283548,0.70935061,-0.00000457,
 -0.00000281,0.00645412,0.00000110,-0.00000031,-0.00082725,0.00002577,0
 .00002418,0.01921844,-0.00000334,0.00000618,-0.00313440,0.00000220,0.0
 0000002,0.00014454,-0.00003136,0.00001928,-0.05140837,0.00000094,0.000
 00346,0.00149254,-0.00000200,-0.00001014,0.00430238,0.00007291,0.00000
 665,0.12436799,-0.00759313,0.00843524,-0.00000833,0.00571735,-0.005237
 95,-0.00000175,-0.00440995,0.00316691,0.00000302,-0.03830930,-0.042836
 32,0.00000168,-0.04472011,0.08235496,-0.00000248,0.05476324,-0.0067517
 4,0.00000728,0.00225942,0.00375137,-0.00000276,-0.31772175,-0.07136685
 ,-0.00003430,-0.14429875,-0.04060506,-0.00002858,0.68722891,0.00329404
 ,0.00209719,-0.00000091,-0.00110001,-0.00925150,-0.00000715,0.00803060
 ,0.00850913,-0.00000556,-0.03951933,-0.03527118,-0.00000616,0.02576233
 ,0.05704938,0.00000947,0.04069536,-0.05296624,0.00000385,0.00111886,-0
 .00035207,0.00000037,-0.00241636,-0.13134403,0.00000228,-0.09632251,-0
 .31524472,-0.00002473,-0.03111617,0.71017916,0.00000087,0.00000077,-0.
 00158630,-0.00000242,0.00000147,0.00582436,0.00000093,-0.00000020,0.00
 328106,-0.00000696,-0.00000664,0.00228441,-0.00000284,0.00001150,-0.00
 275113,0.00001054,-0.00000198,0.00076820,-0.00000072,-0.00000241,0.001
 60133,-0.00003799,-0.00000869,-0.05262372,-0.00002552,-0.00001627,-0.0
 5727039,0.00008439,0.00001036,0.13056597,0.00143299,-0.00359720,0.0000
 0112,0.01344163,-0.00266800,0.00000635,-0.23384980,-0.26245436,0.00018
 131,0.00504898,0.01136511,0.00000265,-0.01213678,0.00055390,-0.0000069
 3,-0.03565573,0.01021710,-0.00000458,-0.00224479,0.00451374,0.00000125
 ,0.00903060,-0.00307873,0.00000368,-0.21749619,0.00610825,-0.00005632,
 -0.01846082,-0.01952748,-0.00000113,0.62847559,0.00366749,-0.00152205,
 0.00000054,0.00390630,-0.00022392,0.00000243,-0.26824333,-0.66048262,0
 .00033997,0.00757197,-0.00025739,0.00000315,-0.00371298,-0.00593853,-0
 .00000222,0.02101858,0.01554132,0.00000903,-0.00059768,0.00057370,0.00
 000059,-0.00254973,-0.00677981,0.00000003,0.03165683,-0.10086566,-0.00
 001269,-0.03774206,-0.00840879,-0.00000838,0.14989733,0.95164546,-0.00
 000192,0.00000117,0.00033124,-0.00000038,-0.00000090,-0.00000014,0.000
 17429,0.00031261,-0.06355898,-0.00000309,-0.00000220,0.00611495,0.0000
 0275,0.00000286,-0.00146021,0.00000435,-0.00000455,0.00154503,0.000000
 51,0.00000088,-0.00013345,0.00000007,-0.00000236,0.00801996,-0.0000142
 0,-0.00001884,-0.07115470,-0.00000215,0.00000635,-0.00121965,-0.000231
 09,-0.00018695,0.18836888,0.00309298,0.00076256,0.00000082,-0.00158192
 ,-0.00048965,0.00000070,-0.00084809,-0.00119582,0.00000005,-0.00524178
 ,-0.02807778,-0.00000230,-0.00383756,0.00045922,-0.00000214,-0.1014096
 6,-0.10347071,-0.00001306,-0.00037890,-0.00123821,-0.00000009,-0.00143
 458,0.00059228,0.00000030,0.01386388,0.01510487,0.00000327,-0.00218627
 ,0.00359259,-0.00000161,0.00078758,0.00112241,0.00000017,0.09842997,-0
 .00035309,-0.00034797,0.00000044,0.00016889,0.00038545,0.00000014,-0.0
 0034931,0.00196811,-0.00000103,0.00102107,0.00207793,-0.00000044,0.000
 62748,0.00047282,0.00000020,-0.10431220,-0.29889409,-0.00002076,-0.000
 27229,-0.00013277,-0.00000031,-0.00005444,0.00065810,-0.00000007,-0.00
 988436,-0.01718783,-0.00000144,0.00409505,-0.00144771,0.00000092,-0.00
 215997,-0.00205477,0.00000049,0.11206839,0.31523940,0.00000262,-0.0000
 0027,-0.00400044,0.00000019,0.00000057,-0.00096193,0.00000027,0.000001
 05,-0.00039628,-0.00000116,-0.00000100,0.00483602,-0.00000159,-0.00000
 224,0.00877147,-0.00001504,-0.00001872,-0.03623453,-0.00000078,-0.0000
 0141,-0.00035818,-0.00000144,0.00000003,-0.00163739,0.00000418,-0.0000
 0197,0.00178828,-0.00000065,0.00000205,0.00599102,-0.00000153,-0.00000
 039,-0.00331961,0.00001421,0.00002193,0.02526812,-0.02685897,-0.002303
 38,0.02150560,0.00013746,0.00825719,0.00786874,-0.00018469,-0.00019004
 ,-0.00000427,-0.00029931,-0.00385037,0.00252370,-0.00133722,0.00106652
 ,-0.00057322,-0.00033554,0.00069200,0.00023315,-0.11161974,0.02597544,
 0.09883666,0.00050032,-0.00031470,0.00007632,-0.00036258,0.00030959,-0
 .00034920,-0.00071225,-0.00010887,0.00002224,0.00034643,0.00028081,-0.
 00011434,0.00006591,0.00001891,0.00010965,0.12965022,-0.02035757,0.006
 60181,0.01104101,0.02652736,-0.02028087,-0.02300796,0.00022293,0.00027
 461,0.00001266,0.00248840,-0.00410627,0.00353060,-0.00526940,-0.003265
 66,-0.00417733,-0.00144024,0.00094072,0.00010862,0.02596046,-0.0558487
 7,-0.03852941,0.00173220,-0.00003874,-0.00012768,0.00085254,-0.0004790
 4,-0.00038636,-0.00037416,-0.00006453,0.00042296,-0.00059911,-0.000108
 70,-0.00010247,0.00009310,0.00002458,0.00015139,-0.02776450,0.06975477
 ,0.00054034,0.00378056,0.01185763,-0.00236657,-0.00272410,0.01163137,0
 .00014465,0.00013766,0.00000480,-0.00088362,0.00041891,-0.00109369,-0.
 00092454,0.00039731,-0.00102912,-0.00051291,0.00022282,-0.00032574,0.1
 0851998,-0.04290034,-0.24750596,-0.00045444,0.00013780,-0.00032660,0.0
 0024843,-0.00035798,-0.00002218,0.00028433,0.00019062,-0.00000114,-0.0
 0031866,-0.00011263,0.00000214,-0.00000233,-0.00001082,0.00003440,-0.1
 1719302,0.04595774,0.24640347,-0.02688424,-0.00227097,-0.02143967,0.00
 012029,0.00825807,-0.00783215,-0.00018495,-0.00019038,0.00000443,-0.00
 031712,-0.00385192,-0.00252777,-0.00133762,0.00106795,0.00056622,-0.00
 033386,0.00069354,-0.00023441,-0.11195907,0.02611540,-0.09907213,0.000
 50010,-0.00031433,-0.00007709,-0.00036473,0.00031009,0.00034893,-0.000
 71201,-0.00010961,-0.00002250,0.00034720,0.00028124,0.00011432,0.00006
 592,0.00001884,-0.00010935,0.01108753,-0.00212691,0.01290463,0.1300503
 0,-0.02035983,0.00661966,-0.01102424,0.02655918,-0.02026768,0.02294596
 ,0.00022264,0.00027419,-0.00001279,0.00247280,-0.00410685,-0.00352323,
 -0.00525270,-0.00328451,0.00417390,-0.00143785,0.00094245,-0.00010872,
 0.02609993,-0.05594188,0.03864500,0.00173109,-0.00003482,0.00012917,0.
 00084924,-0.00047928,0.00038588,-0.00037139,-0.00006573,-0.00042285,-0
 .00059805,-0.00010830,0.00010251,0.00009312,0.00002445,-0.00015124,-0.
 00212529,0.00652702,-0.00511191,-0.02793772,0.06983219,-0.00049172,-0.
 00377014,0.01187546,0.00239801,0.00267906,0.01165418,-0.00014356,-0.00
 013635,0.00000486,0.00089989,-0.00041881,-0.00109136,0.00093398,-0.000
 40748,-0.00102660,0.00050780,-0.00022294,-0.00032448,-0.10877098,0.043
 02023,-0.24719713,0.00045162,-0.00013465,-0.00032524,-0.00024473,0.000
 35278,-0.00002243,-0.00027940,-0.00018834,-0.00000169,0.00031606,0.000
 11120,0.00000194,0.00000218,0.00001082,0.00003445,-0.01295677,0.005135
 64,-0.01966801,0.11739112,-0.04605654,0.24604739,-0.00027525,0.0012522
 2,0.00000044,0.00124685,-0.00223299,0.00000002,-0.00094664,-0.00041824
 ,0.00000063,-0.00237178,0.00237632,-0.00000157,0.01219225,0.01833134,0
 .00000251,-0.00077366,0.00080602,0.00000021,0.00043221,0.00052012,0.00
 000015,-0.10017509,-0.10248161,-0.00001088,-0.00565669,0.00068161,-0.0
 0000307,-0.00446353,-0.02843899,-0.00000100,0.00089685,-0.00133304,-0.
 00000046,0.00004498,-0.00009027,0.,-0.00000189,-0.00005275,0.00000157,
 -0.00000191,-0.00005289,-0.00000171,0.09914568,0.00071587,-0.00106240,
 -0.00000045,-0.00078404,0.00161163,-0.00000018,-0.00012144,-0.00017510
 ,0.00000004,0.00280854,-0.00108118,0.00000042,-0.01309314,-0.01750773,
 -0.00000237,0.00127553,-0.00005193,0.00000007,-0.00045427,-0.00092941,
 0.00000047,-0.10097596,-0.30295553,-0.00001924,-0.00028029,0.00240309,
 -0.00000020,0.00022400,0.00123267,-0.00000006,0.00038968,0.00015058,0.
 00000016,-0.00007231,-0.00004071,0.00000009,0.00003281,0.00007739,-0.0
 0000290,0.00003280,0.00007726,0.00000290,0.11062859,0.31781277,-0.0000
 0048,-0.00000015,-0.00054115,0.00000237,-0.00000120,-0.00365175,-0.000
 00014,0.,-0.00036712,-0.00000067,0.00000035,0.00792054,-0.00000220,0.0
 0000243,0.00371239,0.00000007,0.00000033,-0.00152032,0.00000035,0.0000
 0165,-0.00040708,-0.00000993,-0.00002024,-0.03362630,-0.00000153,-0.00
 000071,0.00706646,-0.00000044,-0.00000351,0.00111859,-0.00000020,0.000
 00005,0.00072815,0.00000003,-0.00000002,-0.00066272,-0.00001149,-0.000
 17352,0.00002771,0.00001158,0.00017311,0.00002781,0.00001219,0.0000212
 7,0.02381669,0.00040576,0.00014000,0.00000020,-0.00097769,0.00196371,0
 .00000070,0.00045350,0.00154643,-0.00000116,-0.00107445,-0.00093613,-0
 .00000020,-0.00446192,-0.00224409,-0.00000166,-0.00017144,-0.00263686,
 -0.00000123,-0.00037537,-0.00064927,-0.00000068,-0.01346984,0.02458532
 ,-0.00000318,0.01110299,-0.00713555,0.00000233,-0.16696013,0.13386240,
 -0.00001645,0.00000676,-0.00347530,0.00000053,0.00032578,-0.00057359,0
 .00000005,-0.00002116,0.00013004,0.00000323,-0.00002117,0.00013020,-0.
 00000298,0.00081640,-0.00032102,0.00000055,0.17490373,0.00004451,0.000
 27783,-0.00000030,-0.00014724,0.00039786,0.00000013,-0.00074733,0.0008
 0785,0.00000012,-0.00109976,-0.00020439,0.00000008,-0.00197573,0.00115
 346,-0.00000044,-0.00355259,-0.00400972,-0.00000124,-0.00014566,-0.000
 00507,0.00000007,-0.00528893,0.00748640,-0.00000106,0.01946099,-0.0178
 2144,0.00000304,0.13510410,-0.22568261,0.00001768,0.00344205,-0.000403
 62,-0.00000053,0.00110381,-0.00081209,0.00000020,-0.00000037,0.0000177
 1,-0.00000002,-0.00000035,0.00001784,0.00000007,0.00041138,0.00042512,
 0.00000011,-0.14485732,0.23808846,-0.00000023,0.00000079,0.00004092,-0
 .00000110,0.00000054,0.00024736,0.00000085,0.00000087,0.00103654,-0.00
 000146,-0.00000185,-0.00144976,-0.00000155,0.00000224,0.00645717,-0.00
 000050,-0.00000164,0.00635193,-0.00000005,-0.00000067,-0.00022717,0.00
 000029,0.00000420,0.00278978,0.00000434,0.00000289,0.00229907,-0.00001
 958,0.00001289,-0.03460684,-0.00000138,-0.00000084,-0.00523253,0.00000
 004,-0.00000024,0.00054340,-0.00002561,0.00011390,0.00000781,0.0000256
 3,-0.00011383,0.00000761,0.00000077,-0.00000002,-0.00363818,0.00001909
 ,-0.00001932,0.02519446,-0.00090045,-0.00033374,0.00000013,-0.00027014
 ,-0.00014364,-0.00000047,0.02200544,-0.01577677,0.00000390,0.00037203,
 0.00185725,-0.00000107,0.00028913,-0.00028822,0.00000101,-0.00528509,-
 0.00262224,-0.00000027,0.00020498,0.00022901,-0.00000033,-0.00020414,-
 0.00064521,-0.00000073,-0.01410564,0.02583170,0.00002100,0.00057908,0.
 00230317,0.00000018,-0.13997050,0.09825115,0.00007064,0.00024176,0.000
 03089,0.00000038,-0.00005452,-0.00002237,0.00000894,-0.00005467,-0.000
 02248,-0.00000882,-0.00010879,-0.00000535,-0.00000007,-0.00048176,-0.0
 0175155,0.00000046,0.13774327,0.00019074,-0.00010164,-0.00000006,0.000
 84336,-0.00004886,0.00000034,0.00164200,-0.05388649,0.00000479,-0.0001
 9671,0.00058347,0.00000008,-0.00079339,0.00008569,-0.00000009,-0.00079
 929,0.00074772,0.00000004,-0.00023944,0.00015581,0.00000012,0.00074944
 ,0.00020233,-0.00000017,-0.00213579,0.00064160,-0.00001002,-0.00072992
 ,0.00103157,0.00000184,0.10819574,-0.18075690,-0.00010823,-0.00044784,
 0.00006710,-0.00000008,0.00002424,-0.00002605,-0.00002271,0.00002428,-
 0.00002600,0.00002255,0.00009316,0.00001347,0.00000003,0.00047103,0.00
 026642,0.00000009,-0.10689159,0.23105075,0.00000092,-0.00000016,-0.000
 36110,0.00000081,0.00000023,-0.00031663,-0.00000312,0.00002954,0.01926
 970,0.00000032,0.00000060,-0.00025183,-0.00000136,-0.00000065,0.000627
 08,-0.00000058,0.00000125,0.00201556,-0.00000043,-0.00000029,-0.000074
 45,0.00000026,0.00000125,-0.00038679,-0.00001197,-0.00000007,0.0167058
 8,-0.00000029,-0.00000188,-0.00137408,0.00010940,-0.00014291,-0.059033
 03,-0.00000024,0.00000018,0.00030391,0.00005186,0.00003019,0.00000311,
 -0.00005177,-0.00003016,0.00000323,0.00000021,0.,-0.00000372,0.0000008
 7,0.00000140,0.00017843,-0.00009489,0.00011147,0.02269473\\0.00004288,
 0.00011884,-0.00000677,-0.00009841,-0.00014635,-0.00000591,0.00022703,
 0.00037762,0.00007051,0.00001300,-0.00027038,0.00000224,0.00036314,0.0
 0011584,0.00000415,-0.00002674,-0.00006432,0.00000536,-0.00028456,0.00
 016011,0.00000083,-0.00015535,0.00014837,-0.00000548,0.00035821,0.0000
 6692,0.00005829,0.00017360,-0.00005948,0.00000373,-0.00050830,-0.00054
 441,-0.00019949,-0.00001708,0.00000276,-0.00000087,-0.00003430,0.00002
 409,-0.00002491,-0.00003606,0.00002446,0.00002867,0.00005809,-0.000029
 68,-0.00000071,-0.00008365,-0.00003127,0.00000300,0.00000848,0.0001068
 8,0.00006734\\\@


 The juvenile sea squirt wanders through the sea searching
 for a suitable rock or hunk of coral to cling to and make
 its home for life.  For this task it has a rudimentary
 nervous system.  When it finds its spot and takes root, it
 doesn't need its brain any more so it eats it.
 It's rather like getting tenure.

                               -- source unknown
 Job cpu time:       0 days  1 hours 33 minutes 24.7 seconds.
 Elapsed time:       0 days  0 hours  5 minutes 51.9 seconds.
 File lengths (MBytes):  RWF=    136 Int=      0 D2E=      0 Chk=      8 Scr=      1
 Normal termination of Gaussian 16 at Fri Oct 10 00:55:42 2025.
