 Entering Gaussian System, Link 0=g16
 Input=PGAL0071.gjf
 Output=PGAL0071.log
 Initial command:
 /usr/local/g16/l1.exe "/dados_01/scratch/Gau-2167000.inp" -scrdir="/dados_01/scratch/"
 Entering Link 1 = /usr/local/g16/l1.exe PID=   2167001.
  
 Copyright (c) 1988-2017, Gaussian, Inc.  All Rights Reserved.
  
 This is part of the Gaussian(R) 16 program.  It is based on
 the Gaussian(R) 09 system (copyright 2009, Gaussian, Inc.),
 the Gaussian(R) 03 system (copyright 2003, Gaussian, Inc.),
 the Gaussian(R) 98 system (copyright 1998, Gaussian, Inc.),
 the Gaussian(R) 94 system (copyright 1995, Gaussian, Inc.),
 the Gaussian 92(TM) system (copyright 1992, Gaussian, Inc.),
 the Gaussian 90(TM) system (copyright 1990, Gaussian, Inc.),
 the Gaussian 88(TM) system (copyright 1988, Gaussian, Inc.),
 the Gaussian 86(TM) system (copyright 1986, Carnegie Mellon
 University), and the Gaussian 82(TM) system (copyright 1983,
 Carnegie Mellon University). Gaussian is a federally registered
 trademark of Gaussian, Inc.
  
 This software contains proprietary and confidential information,
 including trade secrets, belonging to Gaussian, Inc.
  
 This software is provided under written license and may be
 used, copied, transmitted, or stored only in accord with that
 written license.
  
 The following legend is applicable only to US Government
 contracts under FAR:
  
                    RESTRICTED RIGHTS LEGEND
  
 Use, reproduction and disclosure by the US Government is
 subject to restrictions as set forth in subparagraphs (a)
 and (c) of the Commercial Computer Software - Restricted
 Rights clause in FAR 52.227-19.
  
 Gaussian, Inc.
 340 Quinnipiac St., Bldg. 40, Wallingford CT 06492
  
  
 ---------------------------------------------------------------
 Warning -- This program may not be used in any manner that
 competes with the business of Gaussian, Inc. or will provide
 assistance to any competitor of Gaussian, Inc.  The licensee
 of this program is prohibited from giving any competitor of
 Gaussian, Inc. access to this program.  By using this program,
 the user acknowledges that Gaussian, Inc. is engaged in the
 business of creating and licensing software in the field of
 computational chemistry and represents and warrants to the
 licensee that it is not a competitor of Gaussian, Inc. and that
 it will not use this program in any manner prohibited above.
 ---------------------------------------------------------------
  

 Cite this work as:
 Gaussian 16, Revision B.01,
 M. J. Frisch, G. W. Trucks, H. B. Schlegel, G. E. Scuseria, 
 M. A. Robb, J. R. Cheeseman, G. Scalmani, V. Barone, 
 G. A. Petersson, H. Nakatsuji, X. Li, M. Caricato, A. V. Marenich, 
 J. Bloino, B. G. Janesko, R. Gomperts, B. Mennucci, H. P. Hratchian, 
 J. V. Ortiz, A. F. Izmaylov, J. L. Sonnenberg, D. Williams-Young, 
 F. Ding, F. Lipparini, F. Egidi, J. Goings, B. Peng, A. Petrone, 
 T. Henderson, D. Ranasinghe, V. G. Zakrzewski, J. Gao, N. Rega, 
 G. Zheng, W. Liang, M. Hada, M. Ehara, K. Toyota, R. Fukuda, 
 J. Hasegawa, M. Ishida, T. Nakajima, Y. Honda, O. Kitao, H. Nakai, 
 T. Vreven, K. Throssell, J. A. Montgomery, Jr., J. E. Peralta, 
 F. Ogliaro, M. J. Bearpark, J. J. Heyd, E. N. Brothers, K. N. Kudin, 
 V. N. Staroverov, T. A. Keith, R. Kobayashi, J. Normand, 
 K. Raghavachari, A. P. Rendell, J. C. Burant, S. S. Iyengar, 
 J. Tomasi, M. Cossi, J. M. Millam, M. Klene, C. Adamo, R. Cammi, 
 J. W. Ochterski, R. L. Martin, K. Morokuma, O. Farkas, 
 J. B. Foresman, and D. J. Fox, Gaussian, Inc., Wallingford CT, 2016.
 
 ******************************************
 Gaussian 16:  ES64L-G16RevB.01 20-Dec-2017
                21-Sep-2025 
 ******************************************
 %nprocs=16
 Will use up to   16 processors via shared memory.
 %mem=40GB
 %chk=PGAL0071.chk
 ----------------------------------------------------------------------
 # opt freq=noraman M08HX/6-311++G** scf=xqc Empiricaldispersion=pfd In
 t(Grid=ultraFine)
 ----------------------------------------------------------------------
 1/18=20,19=15,26=4,38=1/1,3;
 2/9=110,12=2,17=6,18=5,40=1/2;
 3/5=4,6=6,7=1111,11=2,25=1,30=1,71=1,74=-74,75=-5,124=11/1,2,3;
 4//1;
 5/5=2,8=3,13=1,38=5/2,8;
 6/7=2,8=2,9=2,10=2,28=1/1;
 7//1,2,3,16;
 1/18=20,19=15,26=4/3(2);
 2/9=110/2;
 99//99;
 2/9=110/2;
 3/5=4,6=6,7=1111,11=2,25=1,30=1,71=1,74=-74,75=-5,124=11/1,2,3;
 4/5=5,16=3,69=1/1;
 5/5=2,8=3,13=1,38=5/2,8;
 7//1,2,3,16;
 1/18=20,19=15,26=4/3(-5);
 2/9=110/2;
 6/7=2,8=2,9=2,10=2,19=2,28=1/1;
 99/9=1/99;
 --------
 PGAL0071
 --------
 Symbolic Z-matrix:
 Charge =  0 Multiplicity = 1
 O                     0.0003   -2.1481    0.0008 
 O                    -2.3943   -0.7571    0. 
 O                     2.3945   -0.7565    0.0005 
 C                     0.0002   -0.7846   -0.0009 
 C                    -1.2079   -0.0874   -0.0002 
 C                     1.208    -0.0869   -0.0008 
 C                    -1.2082    1.3075    0.0003 
 C                     1.2078    1.308    -0.0001 
 C                    -0.0004    2.0051    0.0005 
 H                    -2.1421    1.8633    0.0008 
 H                     2.1452    1.8575    0.0003 
 H                    -0.0005    3.0912    0.0011 
 H                    -0.923    -2.4551    0.0011 
 H                    -3.1222   -0.1119    0.0004 
 H                     2.2069   -1.7113    0.0003 
 

 GradGradGradGradGradGradGradGradGradGradGradGradGradGradGradGradGradGrad
 Berny optimization.
 Initialization pass.
                           ----------------------------
                           !    Initial Parameters    !
                           ! (Angstroms and Degrees)  !
 --------------------------                            --------------------------
 ! Name  Definition              Value          Derivative Info.                !
 --------------------------------------------------------------------------------
 ! R1    R(1,4)                  1.3635         estimate D2E/DX2                !
 ! R2    R(1,13)                 0.973          estimate D2E/DX2                !
 ! R3    R(2,5)                  1.3624         estimate D2E/DX2                !
 ! R4    R(2,14)                 0.9727         estimate D2E/DX2                !
 ! R5    R(3,6)                  1.3624         estimate D2E/DX2                !
 ! R6    R(3,15)                 0.9731         estimate D2E/DX2                !
 ! R7    R(4,5)                  1.3948         estimate D2E/DX2                !
 ! R8    R(4,6)                  1.3948         estimate D2E/DX2                !
 ! R9    R(5,7)                  1.3949         estimate D2E/DX2                !
 ! R10   R(6,8)                  1.3949         estimate D2E/DX2                !
 ! R11   R(7,9)                  1.3948         estimate D2E/DX2                !
 ! R12   R(7,10)                 1.0868         estimate D2E/DX2                !
 ! R13   R(8,9)                  1.3949         estimate D2E/DX2                !
 ! R14   R(8,11)                 1.0866         estimate D2E/DX2                !
 ! R15   R(9,12)                 1.0861         estimate D2E/DX2                !
 ! A1    A(4,1,13)             108.3879         estimate D2E/DX2                !
 ! A2    A(5,2,14)             109.0028         estimate D2E/DX2                !
 ! A3    A(6,3,15)             108.3222         estimate D2E/DX2                !
 ! A4    A(1,4,5)              119.9936         estimate D2E/DX2                !
 ! A5    A(1,4,6)              120.0092         estimate D2E/DX2                !
 ! A6    A(5,4,6)              119.9972         estimate D2E/DX2                !
 ! A7    A(2,5,4)              120.5667         estimate D2E/DX2                !
 ! A8    A(2,5,7)              119.4316         estimate D2E/DX2                !
 ! A9    A(4,5,7)              120.0018         estimate D2E/DX2                !
 ! A10   A(3,6,4)              120.5484         estimate D2E/DX2                !
 ! A11   A(3,6,8)              119.4463         estimate D2E/DX2                !
 ! A12   A(4,6,8)              120.0052         estimate D2E/DX2                !
 ! A13   A(5,7,9)              119.9975         estimate D2E/DX2                !
 ! A14   A(5,7,10)             120.7708         estimate D2E/DX2                !
 ! A15   A(9,7,10)             119.2316         estimate D2E/DX2                !
 ! A16   A(6,8,9)              119.9921         estimate D2E/DX2                !
 ! A17   A(6,8,11)             120.3704         estimate D2E/DX2                !
 ! A18   A(9,8,11)             119.6375         estimate D2E/DX2                !
 ! A19   A(7,9,8)              120.0063         estimate D2E/DX2                !
 ! A20   A(7,9,12)             120.0046         estimate D2E/DX2                !
 ! A21   A(8,9,12)             119.9891         estimate D2E/DX2                !
 ! D1    D(13,1,4,5)             0.0796         estimate D2E/DX2                !
 ! D2    D(13,1,4,6)           179.9591         estimate D2E/DX2                !
 ! D3    D(14,2,5,4)          -179.9936         estimate D2E/DX2                !
 ! D4    D(14,2,5,7)             0.0063         estimate D2E/DX2                !
 ! D5    D(15,3,6,4)             0.058          estimate D2E/DX2                !
 ! D6    D(15,3,6,8)           179.9666         estimate D2E/DX2                !
 ! D7    D(1,4,5,2)             -0.1063         estimate D2E/DX2                !
 ! D8    D(1,4,5,7)            179.8938         estimate D2E/DX2                !
 ! D9    D(6,4,5,2)           -179.9859         estimate D2E/DX2                !
 ! D10   D(6,4,5,7)              0.0142         estimate D2E/DX2                !
 ! D11   D(1,4,6,3)              0.0238         estimate D2E/DX2                !
 ! D12   D(1,4,6,8)           -179.8843         estimate D2E/DX2                !
 ! D13   D(5,4,6,3)            179.9034         estimate D2E/DX2                !
 ! D14   D(5,4,6,8)             -0.0047         estimate D2E/DX2                !
 ! D15   D(2,5,7,9)            179.9811         estimate D2E/DX2                !
 ! D16   D(2,5,7,10)            -0.0028         estimate D2E/DX2                !
 ! D17   D(4,5,7,9)             -0.019          estimate D2E/DX2                !
 ! D18   D(4,5,7,10)           179.9971         estimate D2E/DX2                !
 ! D19   D(3,6,8,9)           -179.9091         estimate D2E/DX2                !
 ! D20   D(3,6,8,11)             0.0714         estimate D2E/DX2                !
 ! D21   D(4,6,8,9)              0.0            estimate D2E/DX2                !
 ! D22   D(4,6,8,11)           179.9805         estimate D2E/DX2                !
 ! D23   D(5,7,9,8)              0.0142         estimate D2E/DX2                !
 ! D24   D(5,7,9,12)          -179.9872         estimate D2E/DX2                !
 ! D25   D(10,7,9,8)           179.9984         estimate D2E/DX2                !
 ! D26   D(10,7,9,12)           -0.003          estimate D2E/DX2                !
 ! D27   D(6,8,9,7)             -0.0047         estimate D2E/DX2                !
 ! D28   D(6,8,9,12)           179.9967         estimate D2E/DX2                !
 ! D29   D(11,8,9,7)          -179.9854         estimate D2E/DX2                !
 ! D30   D(11,8,9,12)            0.016          estimate D2E/DX2                !
 --------------------------------------------------------------------------------
 Trust Radius=3.00D-01 FncErr=1.00D-07 GrdErr=1.00D-06 EigMax=2.50D+02 EigMin=1.00D-04
 Number of steps in this run=     76 maximum allowed number of steps=    100.
 GradGradGradGradGradGradGradGradGradGradGradGradGradGradGradGradGradGrad

                          Input orientation:                          
 ---------------------------------------------------------------------
 Center     Atomic      Atomic             Coordinates (Angstroms)
 Number     Number       Type             X           Y           Z
 ---------------------------------------------------------------------
      1          8           0        0.000300   -2.148100    0.000800
      2          8           0       -2.394300   -0.757100    0.000000
      3          8           0        2.394500   -0.756500    0.000500
      4          6           0        0.000200   -0.784600   -0.000900
      5          6           0       -1.207900   -0.087400   -0.000200
      6          6           0        1.208000   -0.086900   -0.000800
      7          6           0       -1.208200    1.307500    0.000300
      8          6           0        1.207800    1.308000   -0.000100
      9          6           0       -0.000400    2.005100    0.000500
     10          1           0       -2.142100    1.863300    0.000800
     11          1           0        2.145200    1.857500    0.000300
     12          1           0       -0.000500    3.091200    0.001100
     13          1           0       -0.923000   -2.455100    0.001100
     14          1           0       -3.122200   -0.111900    0.000400
     15          1           0        2.206900   -1.711300    0.000300
 ---------------------------------------------------------------------
                    Distance matrix (angstroms):
                    1          2          3          4          5
     1  O    0.000000
     2  O    2.769294   0.000000
     3  O    2.769250   4.788800   0.000000
     4  C    1.363501   2.394658   2.394465   0.000000
     5  C    2.388772   1.362367   3.664012   1.394845   0.000000
     6  C    2.388951   3.664114   1.362405   1.394836   2.415900
     7  C    3.660826   2.381052   4.152053   2.416012   1.394900
     8  C    3.660968   4.152079   2.381264   2.416045   2.789758
     9  C    4.153200   3.655203   3.655404   2.789700   2.415908
    10  H    4.547660   2.632509   5.238711   3.405999   2.162859
    11  H    4.543724   5.238625   2.625861   3.403192   3.876328
    12  H    5.239300   4.532074   4.532198   3.875801   3.400193
    13  H    0.973002   2.246760   3.727070   1.908631   2.384779
    14  H    3.727750   0.972688   5.554232   3.194043   1.914457
    15  H    2.249417   4.699100   0.973055   2.393387   3.781258
                    6          7          8          9         10
     6  C    0.000000
     7  C    2.789691   0.000000
     8  C    1.394900   2.416000   0.000000
     9  C    2.415926   1.394786   1.394882   0.000000
    10  H    3.876397   1.086776   3.395613   2.146389   0.000000
    11  H    2.158480   3.398204   1.086586   2.150671   4.287304
    12  H    3.400117   2.154095   2.154018   1.086100   2.468641
    13  H    3.185834   3.773393   4.324492   4.554621   4.487180
    14  H    4.330272   2.382875   4.556865   3.771913   2.204997
    15  H    1.906955   4.558077   3.180310   4.322476   5.629526
                   11         12         13         14         15
    11  H    0.000000
    12  H    2.475085   0.000000
    13  H    5.292671   5.622495   0.000000
    14  H    5.623526   4.472679   3.213575   0.000000
    15  H    3.569333   5.285511   3.217066   5.563936   0.000000
 Stoichiometry    C6H6O3
 Framework group  C1[X(C6H6O3)]
 Deg. of freedom    39
 Full point group                 C1      NOp   1
 Largest Abelian subgroup         C1      NOp   1
 Largest concise Abelian subgroup C1      NOp   1
                         Standard orientation:                         
 ---------------------------------------------------------------------
 Center     Atomic      Atomic             Coordinates (Angstroms)
 Number     Number       Type             X           Y           Z
 ---------------------------------------------------------------------
      1          8           0        0.112779   -2.072653    0.000691
      2          8           0       -2.336594   -0.780538   -0.000109
      3          8           0        2.448192   -0.584503    0.000391
      4          6           0        0.057034   -0.710293   -0.001009
      5          6           0       -1.178513   -0.062977   -0.000309
      6          6           0        1.235354    0.036117   -0.000909
      7          6           0       -1.235740    1.330748    0.000191
      8          6           0        1.178227    1.429847   -0.000209
      9          6           0       -0.057416    2.077058    0.000391
     10          1           0       -2.191545    1.847972    0.000691
     11          1           0        2.092420    2.017145    0.000191
     12          1           0       -0.101841    3.162250    0.000991
     13          1           0       -0.797222   -2.417078    0.000991
     14          1           0       -3.090218   -0.165581    0.000291
     15          1           0        2.299715   -1.546163    0.000191
 ---------------------------------------------------------------------
 Rotational constants (GHZ):           2.3676904           1.8159554           1.0277211
 Standard basis: 6-311++G(d,p) (5D, 7F)
 There are   249 symmetry adapted cartesian basis functions of A   symmetry.
 There are   240 symmetry adapted basis functions of A   symmetry.
   240 basis functions,   378 primitive gaussians,   249 cartesian basis functions
    33 alpha electrons       33 beta electrons
       nuclear repulsion energy       437.6609566799 Hartrees.
 NAtoms=   15 NActive=   15 NUniq=   15 SFac= 1.00D+00 NAtFMM=   60 NAOKFM=F Big=F
 Integral buffers will be    131072 words long.
 Raffenetti 2 integral format.
 Two-electron integral symmetry is turned on.
 R6APFD:  NTU= -4 IXU= 1 FactS= 1.050
 Nuclear repulsion after empirical dispersion term =      437.6531241410 Hartrees.
 One-electron integrals computed using PRISM.
 NBasis=   240 RedAO= T EigKep=  5.29D-06  NBF=   240
 NBsUse=   239 1.00D-06 EigRej=  9.87D-07 NBFU=   239
 ExpMin= 3.60D-02 ExpMax= 8.59D+03 ExpMxC= 1.30D+03 IAcc=3 IRadAn=         5 AccDes= 0.00D+00
 Harris functional with IExCor= 1009 and IRadAn=       5 diagonalized for initial guess.
 HarFok:  IExCor= 1009 AccDes= 0.00D+00 IRadAn=         5 IDoV= 1 UseB2=F ITyADJ=14
 ICtDFT=  3500011 ScaDFX=  1.000000  1.000000  1.000000  1.000000
 FoFCou: FMM=F IPFlag=           0 FMFlag=      100000 FMFlg1=           0
         NFxFlg=           0 DoJE=T BraDBF=F KetDBF=T FulRan=T
         wScrn=  0.000000 ICntrl=       500 IOpCl=  0 I1Cent=   200000004 NGrid=           0
         NMat0=    1 NMatS0=      1 NMatT0=    0 NMatD0=    1 NMtDS0=    0 NMtDT0=    0
 Petite list used in FoFCou.
 Requested convergence on RMS density matrix=1.00D-08 within  32 cycles.
 Requested convergence on MAX density matrix=1.00D-06.
 Requested convergence on             energy=1.00D-06.
 No special actions if energy rises.
 SCF Done:  E(RM08HX) =  -457.901246164     A.U. after   13 cycles
            NFock= 13  Conv=0.88D-08     -V/T= 2.0040
 QCSCF skips out because SCF is already converged.

 **********************************************************************

            Population analysis using the SCF Density.

 **********************************************************************

 Orbital symmetries:
       Occupied  (A) (A) (A) (A) (A) (A) (A) (A) (A) (A) (A) (A)
                 (A) (A) (A) (A) (A) (A) (A) (A) (A) (A) (A) (A)
                 (A) (A) (A) (A) (A) (A) (A) (A) (A)
       Virtual   (A) (A) (A) (A) (A) (A) (A) (A) (A) (A) (A) (A)
                 (A) (A) (A) (A) (A) (A) (A) (A) (A) (A) (A) (A)
                 (A) (A) (A) (A) (A) (A) (A) (A) (A) (A) (A) (A)
                 (A) (A) (A) (A) (A) (A) (A) (A) (A) (A) (A) (A)
                 (A) (A) (A) (A) (A) (A) (A) (A) (A) (A) (A) (A)
                 (A) (A) (A) (A) (A) (A) (A) (A) (A) (A) (A) (A)
                 (A) (A) (A) (A) (A) (A) (A) (A) (A) (A) (A) (A)
                 (A) (A) (A) (A) (A) (A) (A) (A) (A) (A) (A) (A)
                 (A) (A) (A) (A) (A) (A) (A) (A) (A) (A) (A) (A)
                 (A) (A) (A) (A) (A) (A) (A) (A) (A) (A) (A) (A)
                 (A) (A) (A) (A) (A) (A) (A) (A) (A) (A) (A) (A)
                 (A) (A) (A) (A) (A) (A) (A) (A) (A) (A) (A) (A)
                 (A) (A) (A) (A) (A) (A) (A) (A) (A) (A) (A) (A)
                 (A) (A) (A) (A) (A) (A) (A) (A) (A) (A) (A) (A)
                 (A) (A) (A) (A) (A) (A) (A) (A) (A) (A) (A) (A)
                 (A) (A) (A) (A) (A) (A) (A) (A) (A) (A) (A) (A)
                 (A) (A) (A) (A) (A) (A) (A) (A) (A) (A) (A) (A)
                 (A) (A)
 The electronic state is 1-A.
 Alpha  occ. eigenvalues --  -19.66254 -19.65456 -19.64210 -10.60807 -10.60334
 Alpha  occ. eigenvalues --  -10.60146 -10.54051 -10.53839 -10.53210  -1.21747
 Alpha  occ. eigenvalues --   -1.19565  -1.17483  -0.96705  -0.85207  -0.84855
 Alpha  occ. eigenvalues --   -0.74338  -0.72293  -0.65858  -0.64096  -0.60755
 Alpha  occ. eigenvalues --   -0.56764  -0.54963  -0.53779  -0.50737  -0.49550
 Alpha  occ. eigenvalues --   -0.48719  -0.46449  -0.45820  -0.43557  -0.43048
 Alpha  occ. eigenvalues --   -0.39705  -0.28457  -0.27889
 Alpha virt. eigenvalues --   -0.03699  -0.02017  -0.01230   0.00785   0.01031
 Alpha virt. eigenvalues --    0.01845   0.02366   0.03546   0.03715   0.04239
 Alpha virt. eigenvalues --    0.06270   0.06658   0.06974   0.08261   0.08793
 Alpha virt. eigenvalues --    0.10148   0.10250   0.10446   0.10498   0.11018
 Alpha virt. eigenvalues --    0.12256   0.12862   0.13444   0.13854   0.15067
 Alpha virt. eigenvalues --    0.15635   0.16359   0.16754   0.18411   0.18949
 Alpha virt. eigenvalues --    0.19255   0.19490   0.21169   0.22037   0.22295
 Alpha virt. eigenvalues --    0.24909   0.25516   0.25747   0.26980   0.27788
 Alpha virt. eigenvalues --    0.28325   0.29857   0.30798   0.31542   0.32634
 Alpha virt. eigenvalues --    0.32942   0.33032   0.34182   0.36192   0.37445
 Alpha virt. eigenvalues --    0.38889   0.39220   0.40942   0.42858   0.43183
 Alpha virt. eigenvalues --    0.44960   0.46732   0.51129   0.54514   0.55656
 Alpha virt. eigenvalues --    0.57437   0.58254   0.58833   0.60215   0.60427
 Alpha virt. eigenvalues --    0.60700   0.62067   0.64216   0.64846   0.65884
 Alpha virt. eigenvalues --    0.66520   0.72065   0.73061   0.76016   0.77163
 Alpha virt. eigenvalues --    0.79803   0.81654   0.84073   0.85818   0.87572
 Alpha virt. eigenvalues --    0.90434   0.91472   0.92656   0.93368   0.96409
 Alpha virt. eigenvalues --    1.01392   1.02202   1.02245   1.03152   1.03896
 Alpha virt. eigenvalues --    1.08086   1.11802   1.11900   1.14887   1.16147
 Alpha virt. eigenvalues --    1.19781   1.20200   1.20888   1.23380   1.25248
 Alpha virt. eigenvalues --    1.25673   1.27277   1.28382   1.28977   1.39953
 Alpha virt. eigenvalues --    1.42024   1.44093   1.45442   1.52946   1.54664
 Alpha virt. eigenvalues --    1.58019   1.59704   1.59770   1.62660   1.63827
 Alpha virt. eigenvalues --    1.64215   1.69216   1.69430   1.72566   1.75349
 Alpha virt. eigenvalues --    1.77652   1.81345   1.84080   1.85845   1.90839
 Alpha virt. eigenvalues --    1.94369   1.95495   1.95613   1.96258   1.98312
 Alpha virt. eigenvalues --    1.99838   2.01336   2.05161   2.08317   2.09815
 Alpha virt. eigenvalues --    2.13125   2.15266   2.24333   2.26457   2.33849
 Alpha virt. eigenvalues --    2.35134   2.35538   2.41377   2.48352   2.55862
 Alpha virt. eigenvalues --    2.58261   2.63875   2.66401   2.66726   2.69565
 Alpha virt. eigenvalues --    2.71383   2.72604   2.76509   2.78157   2.80848
 Alpha virt. eigenvalues --    2.81273   2.82888   2.93748   2.93968   3.12520
 Alpha virt. eigenvalues --    3.13634   3.15191   3.15614   3.16028   3.16083
 Alpha virt. eigenvalues --    3.16484   3.21818   3.24834   3.25528   3.29057
 Alpha virt. eigenvalues --    3.39447   3.43406   3.46460   3.50322   3.54041
 Alpha virt. eigenvalues --    3.57358   3.64216   3.68902   3.82587   3.93243
 Alpha virt. eigenvalues --    3.96145   3.97223   4.07838   4.14333   4.22168
 Alpha virt. eigenvalues --    4.25082   4.26763   4.91873   5.06621   5.12071
 Alpha virt. eigenvalues --    5.17381   5.50094   5.56441   5.56806   5.75137
 Alpha virt. eigenvalues --    5.86359   5.92305  23.59817  23.96354  23.98494
 Alpha virt. eigenvalues --   24.09748  24.12350  24.23030  49.89229  49.95786
 Alpha virt. eigenvalues --   50.00614
          Condensed to atoms (all electrons):
               1          2          3          4          5          6
     1  O    8.000251   0.019338   0.019978   0.803972   0.226242  -0.913272
     2  O    0.019338   8.031897  -0.000435  -0.846055   0.579860  -0.123694
     3  O    0.019978  -0.000435   7.953833   0.136289  -0.049802   0.490145
     4  C    0.803972  -0.846055   0.136289  20.325454  -2.169642  -1.978755
     5  C    0.226242   0.579860  -0.049802  -2.169642  14.568522  -6.293080
     6  C   -0.913272  -0.123694   0.490145  -1.978755  -6.293080  14.964624
     7  C   -0.042728   0.253947   0.018968  -4.796214   0.805336  -0.610913
     8  C   -0.128695   0.040609  -0.611417  -6.399703  -0.411839   1.099546
     9  C    0.007433   0.036493   0.016397   1.075450  -0.754041  -0.624656
    10  H   -0.002973  -0.015015   0.000251  -0.014965  -0.196308   0.048109
    11  H   -0.001115   0.000418  -0.026206  -0.137923   0.044765  -0.124301
    12  H    0.000729  -0.001375   0.001592   0.126699   0.046950  -0.001008
    13  H    0.266586   0.017764   0.001657   0.153099  -0.359366   0.243709
    14  H    0.002165   0.257983  -0.000231   0.201227   0.108847   0.014606
    15  H    0.017962  -0.000503   0.271900  -0.304260  -0.031053   0.153646
               7          8          9         10         11         12
     1  O   -0.042728  -0.128695   0.007433  -0.002973  -0.001115   0.000729
     2  O    0.253947   0.040609   0.036493  -0.015015   0.000418  -0.001375
     3  O    0.018968  -0.611417   0.016397   0.000251  -0.026206   0.001592
     4  C   -4.796214  -6.399703   1.075450  -0.014965  -0.137923   0.126699
     5  C    0.805336  -0.411839  -0.754041  -0.196308   0.044765   0.046950
     6  C   -0.610913   1.099546  -0.624656   0.048109  -0.124301  -0.001008
     7  C   10.365399   0.144273  -0.234434   0.513232   0.028494  -0.103282
     8  C    0.144273  12.024903  -0.159854  -0.018004   0.583409  -0.145485
     9  C   -0.234434  -0.159854   6.491014   0.010525  -0.080699   0.367433
    10  H    0.513232  -0.018004   0.010525   0.471025  -0.000408  -0.002054
    11  H    0.028494   0.583409  -0.080699  -0.000408   0.429775  -0.006212
    12  H   -0.103282  -0.145485   0.367433  -0.002054  -0.006212   0.421035
    13  H   -0.049427   0.014168  -0.002032   0.000270  -0.000254   0.000363
    14  H   -0.308854   0.009482  -0.014297  -0.001644   0.000387   0.000735
    15  H   -0.005973   0.180303  -0.001203   0.000297   0.003922  -0.000288
              13         14         15
     1  O    0.266586   0.002165   0.017962
     2  O    0.017764   0.257983  -0.000503
     3  O    0.001657  -0.000231   0.271900
     4  C    0.153099   0.201227  -0.304260
     5  C   -0.359366   0.108847  -0.031053
     6  C    0.243709   0.014606   0.153646
     7  C   -0.049427  -0.308854  -0.005973
     8  C    0.014168   0.009482   0.180303
     9  C   -0.002032  -0.014297  -0.001203
    10  H    0.000270  -0.001644   0.000297
    11  H   -0.000254   0.000387   0.003922
    12  H    0.000363   0.000735  -0.000288
    13  H    0.394239   0.000769   0.001236
    14  H    0.000769   0.423990   0.000001
    15  H    0.001236   0.000001   0.405999
 Mulliken charges:
               1
     1  O   -0.275874
     2  O   -0.251232
     3  O   -0.222918
     4  C   -0.174673
     5  C   -0.115391
     6  C   -0.344705
     7  C    0.022177
     8  C   -0.221697
     9  C   -0.133530
    10  H    0.207661
    11  H    0.285948
    12  H    0.294169
    13  H    0.317218
    14  H    0.304834
    15  H    0.308014
 Sum of Mulliken charges =  -0.00000
 Mulliken charges with hydrogens summed into heavy atoms:
               1
     1  O    0.041344
     2  O    0.053602
     3  O    0.085095
     4  C   -0.174673
     5  C   -0.115391
     6  C   -0.344705
     7  C    0.229838
     8  C    0.064251
     9  C    0.160639
 Electronic spatial extent (au):  <R**2>=           1079.5860
 Charge=             -0.0000 electrons
 Dipole moment (field-independent basis, Debye):
    X=             -2.9153    Y=              0.2725    Z=              0.0012  Tot=              2.9280
 Quadrupole moment (field-independent basis, Debye-Ang):
   XX=            -47.1994   YY=            -46.7923   ZZ=            -56.5719
   XY=             -2.0706   XZ=             -0.0066   YZ=              0.0024
 Traceless Quadrupole moment (field-independent basis, Debye-Ang):
   XX=              2.9885   YY=              3.3955   ZZ=             -6.3840
   XY=             -2.0706   XZ=             -0.0066   YZ=              0.0024
 Octapole moment (field-independent basis, Debye-Ang**2):
  XXX=            -41.6841  YYY=            -13.5529  ZZZ=              0.0097  XYY=              2.9138
  XXY=             -0.7202  XXZ=              0.0105  XZZ=             -0.0256  YZZ=             -8.9972
  YYZ=              0.0195  XYZ=              0.0053
 Hexadecapole moment (field-independent basis, Debye-Ang**3):
 XXXX=           -636.6000 YYYY=           -539.5560 ZZZZ=            -61.1991 XXXY=            -31.5630
 XXXZ=             -0.0298 YYYX=              9.1651 YYYZ=              0.0092 ZZZX=              0.0053
 ZZZY=             -0.0035 XXYY=           -190.2460 XXZZ=           -137.4231 YYZZ=           -122.7512
 XXYZ=              0.0007 YYXZ=             -0.0104 ZZXY=              0.0281
 N-N= 4.376531241410D+02 E-N=-1.946958333754D+03  KE= 4.560569159029D+02
 R6APFD:  NTU= -4 IXU= 1 FactS= 1.050
 Calling FoFJK, ICntrl=      2127 FMM=F ISym2X=0 I1Cent= 0 IOpClX= 0 NMat=1 NMatS=1 NMatT=0.
 ***** Axes restored to original set *****
 -------------------------------------------------------------------
 Center     Atomic                   Forces (Hartrees/Bohr)
 Number     Number              X              Y              Z
 -------------------------------------------------------------------
      1        8          -0.004790144   -0.005298955   -0.000071528
      2        8          -0.005433218   -0.005626423    0.000014354
      3        8          -0.009259358   -0.010412847   -0.000067735
      4        6          -0.016180522   -0.002801065    0.000136251
      5        6          -0.001483813    0.026283978   -0.000062095
      6        6           0.006288024    0.001651959    0.000118711
      7        6           0.010220207    0.004395436   -0.000002863
      8        6          -0.003963080    0.004281154   -0.000027678
      9        6           0.000871650   -0.009175740   -0.000033455
     10        1          -0.003339767   -0.001087026   -0.000000731
     11        1           0.002223940   -0.003671619    0.000000391
     12        1           0.000178279    0.000732431    0.000000103
     13        1           0.011174363    0.001897817   -0.000007205
     14        1           0.010418134   -0.011139319   -0.000002337
     15        1           0.003075305    0.009970217    0.000005818
 -------------------------------------------------------------------
 Cartesian Forces:  Max     0.026283978 RMS     0.006758417

 GradGradGradGradGradGradGradGradGradGradGradGradGradGradGradGradGradGrad
 Berny optimization.
 FormGI is forming the generalized inverse of G from B-inverse, IUseBI=4.
 Internal  Forces:  Max     0.023872039 RMS     0.005476154
 Search for a local minimum.
 Step number   1 out of a maximum of   76
 All quantities printed in internal units (Hartrees-Bohrs-Radians)
 Mixed Optimization -- RFO/linear search
 Second derivative matrix not updated -- first step.
 ITU=  0
     Eigenvalues ---    0.02156   0.02156   0.02157   0.02157   0.02157
     Eigenvalues ---    0.02157   0.02160   0.02162   0.02163   0.02175
     Eigenvalues ---    0.02189   0.02190   0.16000   0.16000   0.16000
     Eigenvalues ---    0.16000   0.16000   0.16000   0.22085   0.23479
     Eigenvalues ---    0.24913   0.25000   0.25000   0.25000   0.35188
     Eigenvalues ---    0.35210   0.35267   0.42407   0.42421   0.46476
     Eigenvalues ---    0.46481   0.46484   0.46492   0.52246   0.52464
     Eigenvalues ---    0.52472   0.52758   0.52768   0.52832
 RFO step:  Lambda=-6.72218420D-03 EMin= 2.15633209D-02
 Linear search not attempted -- first point.
 Iteration  1 RMS(Cart)=  0.04662411 RMS(Int)=  0.00147393
 Iteration  2 RMS(Cart)=  0.00208712 RMS(Int)=  0.00000831
 Iteration  3 RMS(Cart)=  0.00000117 RMS(Int)=  0.00000826
 Iteration  4 RMS(Cart)=  0.00000000 RMS(Int)=  0.00000826
 Variable       Old X    -DE/DX   Delta X   Delta X   Delta X     New X
                                 (Linear)    (Quad)   (Total)
    R1        2.57664   0.00340   0.00000   0.00643   0.00643   2.58307
    R2        1.83871  -0.01120   0.00000  -0.02097  -0.02097   1.81774
    R3        2.57450   0.00390   0.00000   0.00734   0.00734   2.58184
    R4        1.83811  -0.01519   0.00000  -0.02839  -0.02839   1.80973
    R5        2.57457  -0.00517   0.00000  -0.00973  -0.00973   2.56485
    R6        1.83881  -0.01038   0.00000  -0.01942  -0.01942   1.81938
    R7        2.63588  -0.00513   0.00000  -0.01095  -0.01095   2.62492
    R8        2.63586  -0.00250   0.00000  -0.00556  -0.00556   2.63029
    R9        2.63598  -0.00057   0.00000  -0.00100  -0.00100   2.63498
   R10        2.63598  -0.00396   0.00000  -0.00860  -0.00860   2.62738
   R11        2.63576  -0.00132   0.00000  -0.00254  -0.00253   2.63323
   R12        2.05371   0.00231   0.00000   0.00645   0.00645   2.06016
   R13        2.63595  -0.00257   0.00000  -0.00540  -0.00540   2.63055
   R14        2.05335   0.00006   0.00000   0.00017   0.00017   2.05352
   R15        2.05243   0.00073   0.00000   0.00204   0.00204   2.05447
    A1        1.89173   0.00317   0.00000   0.01904   0.01904   1.91077
    A2        1.90246   0.00262   0.00000   0.01574   0.01574   1.91820
    A3        1.89058   0.00202   0.00000   0.01210   0.01210   1.90268
    A4        2.09428   0.00986   0.00000   0.03864   0.03865   2.13293
    A5        2.09455  -0.00978   0.00000  -0.03785  -0.03784   2.05671
    A6        2.09435  -0.00009   0.00000  -0.00079  -0.00080   2.09355
    A7        2.10429  -0.02387   0.00000  -0.09320  -0.09320   2.01108
    A8        2.08447   0.02266   0.00000   0.08806   0.08806   2.17254
    A9        2.09443   0.00121   0.00000   0.00514   0.00514   2.09956
   A10        2.10397  -0.00398   0.00000  -0.01513  -0.01513   2.08884
   A11        2.08473   0.00281   0.00000   0.01131   0.01131   2.09604
   A12        2.09449   0.00117   0.00000   0.00382   0.00382   2.09830
   A13        2.09435  -0.00278   0.00000  -0.01108  -0.01107   2.08328
   A14        2.10785  -0.00133   0.00000  -0.01075  -0.01075   2.09710
   A15        2.08098   0.00411   0.00000   0.02183   0.02183   2.10281
   A16        2.09426  -0.00156   0.00000  -0.00699  -0.00699   2.08726
   A17        2.10086  -0.00362   0.00000  -0.02292  -0.02292   2.07794
   A18        2.08807   0.00518   0.00000   0.02991   0.02991   2.11798
   A19        2.09451   0.00205   0.00000   0.00991   0.00991   2.10442
   A20        2.09447  -0.00084   0.00000  -0.00387  -0.00388   2.09060
   A21        2.09421  -0.00120   0.00000  -0.00603  -0.00604   2.08817
    D1        0.00139  -0.00002   0.00000  -0.00070  -0.00070   0.00069
    D2        3.14088   0.00003   0.00000   0.00106   0.00106  -3.14125
    D3       -3.14148  -0.00001   0.00000  -0.00017  -0.00017   3.14154
    D4        0.00011  -0.00000   0.00000  -0.00007  -0.00007   0.00004
    D5        0.00101  -0.00003   0.00000  -0.00086  -0.00085   0.00016
    D6        3.14101   0.00002   0.00000   0.00070   0.00070  -3.14148
    D7       -0.00186   0.00004   0.00000   0.00171   0.00173  -0.00012
    D8        3.13974   0.00004   0.00000   0.00161   0.00164   3.14138
    D9       -3.14135   0.00000   0.00000  -0.00001  -0.00002  -3.14137
   D10        0.00025  -0.00000   0.00000  -0.00011  -0.00011   0.00014
   D11        0.00042  -0.00002   0.00000  -0.00035  -0.00033   0.00009
   D12       -3.13957  -0.00006   0.00000  -0.00192  -0.00188  -3.14146
   D13        3.13991   0.00005   0.00000   0.00146   0.00144   3.14135
   D14       -0.00008  -0.00000   0.00000  -0.00011  -0.00012  -0.00020
   D15        3.14126   0.00000   0.00000   0.00019   0.00020   3.14146
   D16       -0.00005  -0.00000   0.00000  -0.00007  -0.00007  -0.00012
   D17       -0.00033   0.00001   0.00000   0.00029   0.00030  -0.00003
   D18        3.14154   0.00000   0.00000   0.00003   0.00003   3.14157
   D19       -3.14001  -0.00004   0.00000  -0.00138  -0.00138  -3.14139
   D20        0.00125  -0.00003   0.00000  -0.00109  -0.00110   0.00015
   D21        0.00000   0.00000   0.00000   0.00015   0.00016   0.00016
   D22        3.14125   0.00001   0.00000   0.00044   0.00044  -3.14150
   D23        0.00025  -0.00001   0.00000  -0.00025  -0.00025  -0.00001
   D24       -3.14137  -0.00001   0.00000  -0.00025  -0.00025   3.14156
   D25        3.14156  -0.00000   0.00000   0.00000   0.00001   3.14157
   D26       -0.00005  -0.00000   0.00000   0.00001   0.00001  -0.00004
   D27       -0.00008   0.00000   0.00000   0.00003   0.00003  -0.00006
   D28        3.14153   0.00000   0.00000   0.00003   0.00003   3.14156
   D29       -3.14134  -0.00001   0.00000  -0.00024  -0.00025  -3.14159
   D30        0.00028  -0.00001   0.00000  -0.00025  -0.00025   0.00003
         Item               Value     Threshold  Converged?
 Maximum Force            0.023872     0.000450     NO 
 RMS     Force            0.005476     0.000300     NO 
 Maximum Displacement     0.244224     0.001800     NO 
 RMS     Displacement     0.046624     0.001200     NO 
 Predicted change in Energy=-3.445087D-03
 GradGradGradGradGradGradGradGradGradGradGradGradGradGradGradGradGradGrad

                          Input orientation:                          
 ---------------------------------------------------------------------
 Center     Atomic      Atomic             Coordinates (Angstroms)
 Number     Number       Type             X           Y           Z
 ---------------------------------------------------------------------
      1          8           0        0.006949   -2.121339    0.000271
      2          8           0       -2.352223   -0.806030    0.000453
      3          8           0        2.350941   -0.776252    0.000320
      4          6           0       -0.026033   -0.754834    0.000108
      5          6           0       -1.218858   -0.043056    0.000270
      6          6           0        1.188702   -0.075289    0.000189
      7          6           0       -1.205985    1.351255    0.000349
      8          6           0        1.212979    1.314849    0.000193
      9          6           0        0.014702    2.023276    0.000306
     10          1           0       -2.143546    1.907580    0.000457
     11          1           0        2.171951    1.825965    0.000164
     12          1           0        0.032699    3.110306    0.000340
     13          1           0       -0.891899   -2.463883   -0.000119
     14          1           0       -3.125542   -0.241138    0.000606
     15          1           0        2.149463   -1.717711    0.000193
 ---------------------------------------------------------------------
                    Distance matrix (angstroms):
                    1          2          3          4          5
     1  O    0.000000
     2  O    2.701061   0.000000
     3  O    2.702510   4.703259   0.000000
     4  C    1.366903   2.326754   2.377070   0.000000
     5  C    2.412853   1.366252   3.644317   1.389050   0.000000
     6  C    2.362808   3.615540   1.357258   1.391891   2.407776
     7  C    3.678331   2.442896   4.144636   2.414104   1.394371
     8  C    3.641688   4.148349   2.380685   2.412206   2.785272
     9  C    4.144623   3.688809   3.646282   2.778409   2.406534
    10  H    4.566926   2.721621   5.234822   3.401809   2.158710
    11  H    4.502049   5.234076   2.608366   3.389934   3.871799
    12  H    5.231709   4.585362   4.525437   3.865586   3.392653
    13  H    0.961907   2.209304   3.655696   1.915874   2.442806
    14  H    3.653445   0.957667   5.502565   3.141790   1.916946
    15  H    2.180202   4.593075   0.962776   2.379057   3.761656
                    6          7          8          9         10
     6  C    0.000000
     7  C    2.787391   0.000000
     8  C    1.390350   2.419238   0.000000
     9  C    2.404631   1.393445   1.392026   0.000000
    10  H    3.877582   1.090192   3.408459   2.161347   0.000000
    11  H    2.140455   3.411128   1.086677   2.166253   4.316268
    12  H    3.388858   2.151418   2.148657   1.087179   2.486482
    13  H    3.167693   3.828045   4.325428   4.577830   4.547120
    14  H    4.317431   2.494076   4.609107   3.871525   2.362478
    15  H    1.902791   4.547260   3.173865   4.307225   5.618955
                   11         12         13         14         15
    11  H    0.000000
    12  H    2.495181   0.000000
    13  H    5.271619   5.650351   0.000000
    14  H    5.686506   4.605069   3.151152   0.000000
    15  H    3.543747   5.271664   3.131558   5.477769   0.000000
 Stoichiometry    C6H6O3
 Framework group  C1[X(C6H6O3)]
 Deg. of freedom    39
 Full point group                 C1      NOp   1
 Largest Abelian subgroup         C1      NOp   1
 Largest concise Abelian subgroup C1      NOp   1
                         Standard orientation:                         
 ---------------------------------------------------------------------
 Center     Atomic      Atomic             Coordinates (Angstroms)
 Number     Number       Type             X           Y           Z
 ---------------------------------------------------------------------
      1          8           0        0.080396   -2.054783   -0.000009
      2          8           0       -2.306157   -0.789833    0.000173
      3          8           0        2.395317   -0.660258    0.000040
      4          6           0        0.018424   -0.689285   -0.000172
      5          6           0       -1.189237   -0.002981   -0.000010
      6          6           0        1.218465    0.015884   -0.000091
      7          6           0       -1.205954    1.391290    0.000069
      8          6           0        1.213238    1.406224   -0.000087
      9          6           0        0.000197    2.089064    0.000026
     10          1           0       -2.155110    1.927594    0.000176
     11          1           0        2.161147    1.937575   -0.000116
     12          1           0       -0.004877    3.176231    0.000060
     13          1           0       -0.810981   -2.416323   -0.000399
     14          1           0       -3.091289   -0.241478    0.000326
     15          1           0        2.213862   -1.605781   -0.000087
 ---------------------------------------------------------------------
 Rotational constants (GHZ):           2.3431789           1.8617038           1.0374380
 Standard basis: 6-311++G(d,p) (5D, 7F)
 There are   249 symmetry adapted cartesian basis functions of A   symmetry.
 There are   240 symmetry adapted basis functions of A   symmetry.
   240 basis functions,   378 primitive gaussians,   249 cartesian basis functions
    33 alpha electrons       33 beta electrons
       nuclear repulsion energy       439.1101023229 Hartrees.
 NAtoms=   15 NActive=   15 NUniq=   15 SFac= 1.00D+00 NAtFMM=   60 NAOKFM=F Big=F
 Integral buffers will be    131072 words long.
 Raffenetti 2 integral format.
 Two-electron integral symmetry is turned on.
 R6APFD:  NTU= -4 IXU= 1 FactS= 1.050
 Nuclear repulsion after empirical dispersion term =      439.1019588598 Hartrees.
 One-electron integrals computed using PRISM.
 NBasis=   240 RedAO= T EigKep=  5.07D-06  NBF=   240
 NBsUse=   239 1.00D-06 EigRej=  8.97D-07 NBFU=   239
 Initial guess from the checkpoint file:  "PGAL0071.chk"
 B after Tr=     0.000000    0.000000   -0.000000
         Rot=    0.999950   -0.000012   -0.000020    0.010047 Ang=  -1.15 deg.
 ExpMin= 3.60D-02 ExpMax= 8.59D+03 ExpMxC= 1.30D+03 IAcc=3 IRadAn=         5 AccDes= 0.00D+00
 Harris functional with IExCor= 1009 and IRadAn=       5 diagonalized for initial guess.
 HarFok:  IExCor= 1009 AccDes= 0.00D+00 IRadAn=         5 IDoV= 1 UseB2=F ITyADJ=14
 ICtDFT=  3500011 ScaDFX=  1.000000  1.000000  1.000000  1.000000
 FoFCou: FMM=F IPFlag=           0 FMFlag=      100000 FMFlg1=           0
         NFxFlg=           0 DoJE=T BraDBF=F KetDBF=T FulRan=T
         wScrn=  0.000000 ICntrl=       500 IOpCl=  0 I1Cent=   200000004 NGrid=           0
         NMat0=    1 NMatS0=      1 NMatT0=    0 NMatD0=    1 NMtDS0=    0 NMtDT0=    0
 Petite list used in FoFCou.
 Requested convergence on RMS density matrix=1.00D-08 within  32 cycles.
 Requested convergence on MAX density matrix=1.00D-06.
 Requested convergence on             energy=1.00D-06.
 No special actions if energy rises.
 SCF Done:  E(RM08HX) =  -457.905095090     A.U. after   12 cycles
            NFock= 12  Conv=0.39D-08     -V/T= 2.0038
 QCSCF skips out because SCF is already converged.
 R6APFD:  NTU= -4 IXU= 1 FactS= 1.050
 Calling FoFJK, ICntrl=      2127 FMM=F ISym2X=0 I1Cent= 0 IOpClX= 0 NMat=1 NMatS=1 NMatT=0.
 ***** Axes restored to original set *****
 -------------------------------------------------------------------
 Center     Atomic                   Forces (Hartrees/Bohr)
 Number     Number              X              Y              Z
 -------------------------------------------------------------------
      1        8           0.001629962    0.001173470   -0.000010105
      2        8          -0.000063035   -0.001157142   -0.000005173
      3        8          -0.002443749    0.000841372   -0.000006116
      4        6          -0.002486555   -0.003046048    0.000021715
      5        6           0.000216007    0.006412656    0.000002705
      6        6           0.004931590   -0.003133494   -0.000003729
      7        6          -0.000910172    0.000424152   -0.000002530
      8        6          -0.000976237    0.002977041    0.000003212
      9        6           0.001044475   -0.003103825   -0.000005745
     10        1           0.000019033   -0.000972349    0.000000607
     11        1           0.000492643   -0.000871613    0.000001866
     12        1          -0.000323821    0.000141569    0.000000153
     13        1           0.000212532    0.000455649    0.000003088
     14        1          -0.001271299   -0.000676168   -0.000000562
     15        1          -0.000071374    0.000534727    0.000000616
 -------------------------------------------------------------------
 Cartesian Forces:  Max     0.006412656 RMS     0.001693556

 GradGradGradGradGradGradGradGradGradGradGradGradGradGradGradGradGradGrad
 Berny optimization.
 Using GEDIIS/GDIIS optimizer.
 FormGI is forming the generalized inverse of G from B-inverse, IUseBI=4.
 Internal  Forces:  Max     0.002864452 RMS     0.000977122
 Search for a local minimum.
 Step number   2 out of a maximum of   76
 All quantities printed in internal units (Hartrees-Bohrs-Radians)
 Mixed Optimization -- En-DIIS/RFO-DIIS
 Update second derivatives using D2CorX and points    1    2
 DE= -3.85D-03 DEPred=-3.45D-03 R= 1.12D+00
 TightC=F SS=  1.41D+00  RLast= 1.58D-01 DXNew= 5.0454D-01 4.7427D-01
 Trust test= 1.12D+00 RLast= 1.58D-01 DXMaxT set to 4.74D-01
 ITU=  1  0
 Use linear search instead of GDIIS.
     Eigenvalues ---    0.02156   0.02156   0.02157   0.02157   0.02157
     Eigenvalues ---    0.02157   0.02160   0.02162   0.02163   0.02175
     Eigenvalues ---    0.02189   0.02190   0.15196   0.16000   0.16000
     Eigenvalues ---    0.16000   0.16000   0.16161   0.21189   0.23061
     Eigenvalues ---    0.23945   0.24939   0.25000   0.25541   0.35210
     Eigenvalues ---    0.35240   0.35266   0.42395   0.42626   0.46373
     Eigenvalues ---    0.46480   0.46490   0.46995   0.51571   0.52307
     Eigenvalues ---    0.52469   0.52760   0.52780   0.54759
 RFO step:  Lambda=-1.76039353D-04 EMin= 2.15633533D-02
 Quartic linear search produced a step of  0.10280.
 Iteration  1 RMS(Cart)=  0.00808152 RMS(Int)=  0.00007259
 Iteration  2 RMS(Cart)=  0.00008084 RMS(Int)=  0.00000113
 Iteration  3 RMS(Cart)=  0.00000000 RMS(Int)=  0.00000113
 Variable       Old X    -DE/DX   Delta X   Delta X   Delta X     New X
                                 (Linear)    (Quad)   (Total)
    R1        2.58307  -0.00158   0.00066  -0.00389  -0.00323   2.57985
    R2        1.81774  -0.00036  -0.00216   0.00102  -0.00114   1.81660
    R3        2.58184   0.00213   0.00075   0.00386   0.00461   2.58645
    R4        1.80973   0.00063  -0.00292   0.00371   0.00079   1.81052
    R5        2.56485  -0.00286  -0.00100  -0.00519  -0.00619   2.55865
    R6        1.81938  -0.00051  -0.00200   0.00058  -0.00142   1.81797
    R7        2.62492   0.00194  -0.00113   0.00567   0.00455   2.62947
    R8        2.63029   0.00079  -0.00057   0.00259   0.00201   2.63231
    R9        2.63498  -0.00216  -0.00010  -0.00514  -0.00524   2.62973
   R10        2.62738   0.00074  -0.00088   0.00260   0.00172   2.62910
   R11        2.63323   0.00026  -0.00026   0.00061   0.00035   2.63358
   R12        2.06016  -0.00051   0.00066  -0.00218  -0.00151   2.05865
   R13        2.63055  -0.00028  -0.00055  -0.00033  -0.00089   2.62966
   R14        2.05352   0.00002   0.00002   0.00006   0.00008   2.05360
   R15        2.05447   0.00014   0.00021   0.00024   0.00045   2.05492
    A1        1.91077  -0.00063   0.00196  -0.00634  -0.00438   1.90638
    A2        1.91820   0.00235   0.00162   0.01454   0.01615   1.93435
    A3        1.90268  -0.00033   0.00124  -0.00352  -0.00227   1.90040
    A4        2.13293   0.00191   0.00397   0.00444   0.00841   2.14134
    A5        2.05671  -0.00233  -0.00389  -0.00705  -0.01094   2.04577
    A6        2.09355   0.00042  -0.00008   0.00261   0.00253   2.09607
    A7        2.01108  -0.00240  -0.00958  -0.00185  -0.01143   1.99965
    A8        2.17254   0.00196   0.00905   0.00035   0.00940   2.18194
    A9        2.09956   0.00044   0.00053   0.00150   0.00203   2.10159
   A10        2.08884   0.00026  -0.00155   0.00225   0.00070   2.08954
   A11        2.09604   0.00089   0.00116   0.00253   0.00369   2.09973
   A12        2.09830  -0.00115   0.00039  -0.00478  -0.00439   2.09391
   A13        2.08328  -0.00103  -0.00114  -0.00483  -0.00596   2.07731
   A14        2.09710  -0.00034  -0.00111  -0.00177  -0.00288   2.09422
   A15        2.10281   0.00137   0.00224   0.00660   0.00884   2.11165
   A16        2.08726  -0.00034  -0.00072  -0.00108  -0.00180   2.08546
   A17        2.07794  -0.00085  -0.00236  -0.00378  -0.00613   2.07181
   A18        2.11798   0.00120   0.00307   0.00486   0.00793   2.12591
   A19        2.10442   0.00166   0.00102   0.00658   0.00760   2.11202
   A20        2.09060  -0.00117  -0.00040  -0.00573  -0.00613   2.08447
   A21        2.08817  -0.00049  -0.00062  -0.00085  -0.00148   2.08669
    D1        0.00069  -0.00001  -0.00007  -0.00011  -0.00018   0.00051
    D2       -3.14125   0.00000   0.00011  -0.00025  -0.00014  -3.14139
    D3        3.14154   0.00000  -0.00002   0.00017   0.00015  -3.14149
    D4        0.00004  -0.00000  -0.00001  -0.00004  -0.00005  -0.00001
    D5        0.00016  -0.00000  -0.00009   0.00018   0.00009   0.00026
    D6       -3.14148   0.00000   0.00007  -0.00019  -0.00012   3.14159
    D7       -0.00012   0.00000   0.00018  -0.00043  -0.00025  -0.00037
    D8        3.14138   0.00000   0.00017  -0.00023  -0.00006   3.14132
    D9       -3.14137  -0.00001  -0.00000  -0.00028  -0.00028   3.14154
   D10        0.00014  -0.00000  -0.00001  -0.00008  -0.00009   0.00005
   D11        0.00009  -0.00000  -0.00003   0.00000  -0.00003   0.00006
   D12       -3.14146  -0.00000  -0.00019   0.00037   0.00018  -3.14128
   D13        3.14135   0.00001   0.00015  -0.00014   0.00001   3.14135
   D14       -0.00020   0.00000  -0.00001   0.00023   0.00022   0.00002
   D15        3.14146   0.00000   0.00002   0.00014   0.00016  -3.14157
   D16       -0.00012   0.00000  -0.00001   0.00019   0.00018   0.00006
   D17       -0.00003  -0.00000   0.00003  -0.00009  -0.00005  -0.00009
   D18        3.14157  -0.00000   0.00000  -0.00003  -0.00003   3.14154
   D19       -3.14139  -0.00000  -0.00014   0.00015   0.00001  -3.14137
   D20        0.00015  -0.00000  -0.00011   0.00016   0.00005   0.00020
   D21        0.00016  -0.00000   0.00002  -0.00021  -0.00020  -0.00004
   D22       -3.14150  -0.00000   0.00004  -0.00020  -0.00016   3.14153
   D23       -0.00001   0.00000  -0.00003   0.00010   0.00007   0.00007
   D24        3.14156   0.00000  -0.00003   0.00009   0.00006  -3.14156
   D25        3.14157   0.00000   0.00000   0.00005   0.00005  -3.14157
   D26       -0.00004   0.00000   0.00000   0.00004   0.00004  -0.00001
   D27       -0.00006   0.00000   0.00000   0.00005   0.00005  -0.00000
   D28        3.14156   0.00000   0.00000   0.00006   0.00006  -3.14156
   D29       -3.14159  -0.00000  -0.00003   0.00004   0.00001  -3.14157
   D30        0.00003  -0.00000  -0.00003   0.00005   0.00002   0.00005
         Item               Value     Threshold  Converged?
 Maximum Force            0.002864     0.000450     NO 
 RMS     Force            0.000977     0.000300     NO 
 Maximum Displacement     0.040830     0.001800     NO 
 RMS     Displacement     0.008087     0.001200     NO 
 Predicted change in Energy=-1.332306D-04
 GradGradGradGradGradGradGradGradGradGradGradGradGradGradGradGradGradGrad

                          Input orientation:                          
 ---------------------------------------------------------------------
 Center     Atomic      Atomic             Coordinates (Angstroms)
 Number     Number       Type             X           Y           Z
 ---------------------------------------------------------------------
      1          8           0        0.012996   -2.114314    0.000386
      2          8           0       -2.349683   -0.808271    0.000308
      3          8           0        2.347402   -0.779985    0.000172
      4          6           0       -0.028062   -0.749735    0.000141
      5          6           0       -1.221194   -0.033782    0.000324
      6          6           0        1.190981   -0.075746    0.000070
      7          6           0       -1.207741    1.357749    0.000381
      8          6           0        1.216107    1.315286    0.000203
      9          6           0        0.017383    2.022033    0.000360
     10          1           0       -2.145969    1.911373    0.000479
     11          1           0        2.178534    1.819956    0.000203
     12          1           0        0.035681    3.109298    0.000437
     13          1           0       -0.884753   -2.458049    0.000230
     14          1           0       -3.137293   -0.262744    0.000350
     15          1           0        2.139910   -1.719369    0.000056
 ---------------------------------------------------------------------
                    Distance matrix (angstroms):
                    1          2          3          4          5
     1  O    0.000000
     2  O    2.699629   0.000000
     3  O    2.688845   4.697170   0.000000
     4  C    1.365196   2.322358   2.375657   0.000000
     5  C    2.419057   1.368693   3.645778   1.391457   0.000000
     6  C    2.354444   3.615645   1.353981   1.392956   2.412540
     7  C    3.680409   2.448606   4.148367   2.415187   1.391596
     8  C    3.634506   4.150223   2.381174   2.410865   2.785754
     9  C    4.136349   3.689664   3.644214   2.772140   2.400093
    10  H    4.568072   2.727262   5.237728   3.401033   2.153796
    11  H    4.490884   5.235678   2.605420   3.387090   3.872273
    12  H    5.223661   4.586644   4.524443   3.859559   3.385068
    13  H    0.961305   2.206306   3.641803   1.911088   2.447501
    14  H    3.654125   0.958086   5.509031   3.147138   1.929730
    15  H    2.163272   4.581107   0.962026   2.374930   3.760082
                    6          7          8          9         10
     6  C    0.000000
     7  C    2.794418   0.000000
     8  C    1.391259   2.424220   0.000000
     9  C    2.403748   1.393629   1.391557   0.000000
    10  H    3.883796   1.089390   3.414510   2.166181   0.000000
    11  H    2.137510   3.417674   1.086719   2.170578   4.325469
    12  H    3.388100   2.148028   2.147530   1.087419   2.488899
    13  H    3.159753   3.829443   4.318759   4.570009   4.547803
    14  H    4.332311   2.519755   4.630580   3.895149   2.389457
    15  H    1.897884   4.547023   3.172151   4.301535   5.617031
                   11         12         13         14         15
    11  H    0.000000
    12  H    2.500845   0.000000
    13  H    5.261660   5.642921   0.000000
    14  H    5.709260   4.630165   3.145362   0.000000
    15  H    3.539536   5.267239   3.113557   5.474543   0.000000
 Stoichiometry    C6H6O3
 Framework group  C1[X(C6H6O3)]
 Deg. of freedom    39
 Full point group                 C1      NOp   1
 Largest Abelian subgroup         C1      NOp   1
 Largest concise Abelian subgroup C1      NOp   1
                         Standard orientation:                         
 ---------------------------------------------------------------------
 Center     Atomic      Atomic             Coordinates (Angstroms)
 Number     Number       Type             X           Y           Z
 ---------------------------------------------------------------------
      1          8           0        0.094974   -2.048830    0.000120
      2          8           0       -2.300581   -0.804115    0.000042
      3          8           0        2.394215   -0.654780   -0.000094
      4          6           0        0.018760   -0.685763   -0.000125
      5          6           0       -1.192428   -0.000799    0.000058
      6          6           0        1.220027    0.019421   -0.000196
      7          6           0       -1.214844    1.390616    0.000115
      8          6           0        1.209293    1.410639   -0.000063
      9          6           0       -0.007248    2.086255    0.000094
     10          1           0       -2.167029    1.919875    0.000213
     11          1           0        2.158393    1.939946   -0.000063
     12          1           0       -0.016979    3.173631    0.000171
     13          1           0       -0.793618   -2.415590   -0.000037
     14          1           0       -3.101989   -0.279069    0.000084
     15          1           0        2.211002   -1.599199   -0.000210
 ---------------------------------------------------------------------
 Rotational constants (GHZ):           2.3459170           1.8624525           1.0382071
 Standard basis: 6-311++G(d,p) (5D, 7F)
 There are   249 symmetry adapted cartesian basis functions of A   symmetry.
 There are   240 symmetry adapted basis functions of A   symmetry.
   240 basis functions,   378 primitive gaussians,   249 cartesian basis functions
    33 alpha electrons       33 beta electrons
       nuclear repulsion energy       439.2356492348 Hartrees.
 NAtoms=   15 NActive=   15 NUniq=   15 SFac= 1.00D+00 NAtFMM=   60 NAOKFM=F Big=F
 Integral buffers will be    131072 words long.
 Raffenetti 2 integral format.
 Two-electron integral symmetry is turned on.
 R6APFD:  NTU= -4 IXU= 1 FactS= 1.050
 Nuclear repulsion after empirical dispersion term =      439.2274645424 Hartrees.
 One-electron integrals computed using PRISM.
 NBasis=   240 RedAO= T EigKep=  5.07D-06  NBF=   240
 NBsUse=   239 1.00D-06 EigRej=  8.93D-07 NBFU=   239
 Initial guess from the checkpoint file:  "PGAL0071.chk"
 B after Tr=    -0.000000   -0.000000   -0.000000
         Rot=    0.999998   -0.000002   -0.000004   -0.002131 Ang=  -0.24 deg.
 ExpMin= 3.60D-02 ExpMax= 8.59D+03 ExpMxC= 1.30D+03 IAcc=3 IRadAn=         5 AccDes= 0.00D+00
 Harris functional with IExCor= 1009 and IRadAn=       5 diagonalized for initial guess.
 HarFok:  IExCor= 1009 AccDes= 0.00D+00 IRadAn=         5 IDoV= 1 UseB2=F ITyADJ=14
 ICtDFT=  3500011 ScaDFX=  1.000000  1.000000  1.000000  1.000000
 FoFCou: FMM=F IPFlag=           0 FMFlag=      100000 FMFlg1=           0
         NFxFlg=           0 DoJE=T BraDBF=F KetDBF=T FulRan=T
         wScrn=  0.000000 ICntrl=       500 IOpCl=  0 I1Cent=   200000004 NGrid=           0
         NMat0=    1 NMatS0=      1 NMatT0=    0 NMatD0=    1 NMtDS0=    0 NMtDT0=    0
 Petite list used in FoFCou.
 Requested convergence on RMS density matrix=1.00D-08 within  32 cycles.
 Requested convergence on MAX density matrix=1.00D-06.
 Requested convergence on             energy=1.00D-06.
 No special actions if energy rises.
 SCF Done:  E(RM08HX) =  -457.905222512     A.U. after   11 cycles
            NFock= 11  Conv=0.45D-08     -V/T= 2.0038
 QCSCF skips out because SCF is already converged.
 R6APFD:  NTU= -4 IXU= 1 FactS= 1.050
 Calling FoFJK, ICntrl=      2127 FMM=F ISym2X=0 I1Cent= 0 IOpClX= 0 NMat=1 NMatS=1 NMatT=0.
 ***** Axes restored to original set *****
 -------------------------------------------------------------------
 Center     Atomic                   Forces (Hartrees/Bohr)
 Number     Number              X              Y              Z
 -------------------------------------------------------------------
      1        8          -0.000138403    0.000355244   -0.000013199
      2        8           0.000079444   -0.000632442    0.000005971
      3        8          -0.000799473    0.000689450   -0.000009737
      4        6          -0.000098583   -0.000332081    0.000021684
      5        6           0.000118028    0.000666096   -0.000019394
      6        6           0.001158336   -0.000874938    0.000019734
      7        6          -0.000406255   -0.000062880    0.000002014
      8        6          -0.000839019    0.001271528   -0.000005388
      9        6           0.000980961   -0.000367586   -0.000004911
     10        1           0.000147344   -0.000134343    0.000000187
     11        1           0.000023589   -0.000028230    0.000000519
     12        1          -0.000038745    0.000126591    0.000000621
     13        1          -0.000366325   -0.000419384    0.000000182
     14        1           0.000123061    0.000164123    0.000000873
     15        1           0.000056040   -0.000421147    0.000000844
 -------------------------------------------------------------------
 Cartesian Forces:  Max     0.001271528 RMS     0.000435407

 GradGradGradGradGradGradGradGradGradGradGradGradGradGradGradGradGradGrad
 Berny optimization.
 Using GEDIIS/GDIIS optimizer.
 FormGI is forming the generalized inverse of G from B-inverse, IUseBI=4.
 Internal  Forces:  Max     0.000907270 RMS     0.000250618
 Search for a local minimum.
 Step number   3 out of a maximum of   76
 All quantities printed in internal units (Hartrees-Bohrs-Radians)
 Mixed Optimization -- En-DIIS/RFO-DIIS
 Swapping is turned off.
 Update second derivatives using D2CorX and points    1    2    3
 DE= -1.27D-04 DEPred=-1.33D-04 R= 9.56D-01
 TightC=F SS=  1.41D+00  RLast= 3.46D-02 DXNew= 7.9763D-01 1.0372D-01
 Trust test= 9.56D-01 RLast= 3.46D-02 DXMaxT set to 4.74D-01
 ITU=  1  1  0
     Eigenvalues ---    0.02156   0.02156   0.02157   0.02157   0.02157
     Eigenvalues ---    0.02157   0.02160   0.02162   0.02163   0.02175
     Eigenvalues ---    0.02189   0.02190   0.15103   0.16000   0.16000
     Eigenvalues ---    0.16000   0.16019   0.16949   0.20528   0.22772
     Eigenvalues ---    0.24288   0.25000   0.25036   0.26404   0.35210
     Eigenvalues ---    0.35219   0.35266   0.42037   0.42401   0.45878
     Eigenvalues ---    0.46486   0.46638   0.47805   0.50851   0.52359
     Eigenvalues ---    0.52555   0.52762   0.53649   0.54348
 En-DIIS/RFO-DIIS/Sim-DIIS IScMMF=       -3 using points:     3    2
 RFO step:  Lambda=-1.27352121D-05.
 DidBck=F Rises=F RFO-DIIS coefs:    1.03682   -0.03682
 Iteration  1 RMS(Cart)=  0.00139157 RMS(Int)=  0.00000100
 Iteration  2 RMS(Cart)=  0.00000134 RMS(Int)=  0.00000008
 Iteration  3 RMS(Cart)=  0.00000000 RMS(Int)=  0.00000008
 Variable       Old X    -DE/DX   Delta X   Delta X   Delta X     New X
                                 (Linear)    (Quad)   (Total)
    R1        2.57985   0.00005  -0.00012   0.00006  -0.00006   2.57979
    R2        1.81660   0.00049  -0.00004   0.00091   0.00087   1.81747
    R3        2.58645   0.00010   0.00017   0.00026   0.00043   2.58689
    R4        1.81052  -0.00001   0.00003  -0.00003  -0.00000   1.81052
    R5        2.55865  -0.00077  -0.00023  -0.00160  -0.00182   2.55683
    R6        1.81797   0.00040  -0.00005   0.00073   0.00068   1.81864
    R7        2.62947  -0.00026   0.00017  -0.00052  -0.00035   2.62912
    R8        2.63231   0.00036   0.00007   0.00086   0.00094   2.63324
    R9        2.62973  -0.00010  -0.00019  -0.00035  -0.00054   2.62919
   R10        2.62910   0.00091   0.00006   0.00205   0.00211   2.63121
   R11        2.63358   0.00031   0.00001   0.00062   0.00064   2.63421
   R12        2.05865  -0.00019  -0.00006  -0.00058  -0.00064   2.05801
   R13        2.62966  -0.00072  -0.00003  -0.00160  -0.00164   2.62802
   R14        2.05360   0.00001   0.00000   0.00002   0.00003   2.05363
   R15        2.05492   0.00013   0.00002   0.00037   0.00039   2.05531
    A1        1.90638   0.00048  -0.00016   0.00298   0.00282   1.90920
    A2        1.93435  -0.00037   0.00059  -0.00211  -0.00152   1.93283
    A3        1.90040   0.00027  -0.00008   0.00167   0.00159   1.90199
    A4        2.14134  -0.00033   0.00031  -0.00127  -0.00096   2.14038
    A5        2.04577   0.00048  -0.00040   0.00175   0.00135   2.04712
    A6        2.09607  -0.00015   0.00009  -0.00049  -0.00039   2.09568
    A7        1.99965  -0.00060  -0.00042  -0.00262  -0.00304   1.99661
    A8        2.18194   0.00034   0.00035   0.00161   0.00195   2.18389
    A9        2.10159   0.00026   0.00007   0.00101   0.00109   2.10268
   A10        2.08954   0.00004   0.00003   0.00006   0.00008   2.08962
   A11        2.09973   0.00016   0.00014   0.00062   0.00075   2.10049
   A12        2.09391  -0.00019  -0.00016  -0.00067  -0.00084   2.09308
   A13        2.07731  -0.00002  -0.00022  -0.00038  -0.00060   2.07671
   A14        2.09422  -0.00004  -0.00011  -0.00018  -0.00028   2.09393
   A15        2.11165   0.00005   0.00033   0.00056   0.00089   2.11254
   A16        2.08546   0.00008  -0.00007   0.00043   0.00036   2.08582
   A17        2.07181  -0.00007  -0.00023  -0.00054  -0.00077   2.07105
   A18        2.12591  -0.00001   0.00029   0.00011   0.00040   2.12632
   A19        2.11202   0.00002   0.00028   0.00010   0.00038   2.11240
   A20        2.08447  -0.00006  -0.00023  -0.00037  -0.00059   2.08388
   A21        2.08669   0.00003  -0.00005   0.00027   0.00021   2.08690
    D1        0.00051  -0.00000  -0.00001  -0.00018  -0.00019   0.00032
    D2       -3.14139   0.00000  -0.00001   0.00016   0.00015  -3.14124
    D3       -3.14149  -0.00000   0.00001  -0.00011  -0.00010   3.14159
    D4       -0.00001   0.00000  -0.00000   0.00004   0.00004   0.00003
    D5        0.00026  -0.00000   0.00000  -0.00020  -0.00019   0.00006
    D6        3.14159   0.00000  -0.00000   0.00013   0.00012  -3.14147
    D7       -0.00037   0.00001  -0.00001   0.00044   0.00043   0.00006
    D8        3.14132   0.00001  -0.00000   0.00030   0.00029  -3.14157
    D9        3.14154   0.00000  -0.00001   0.00009   0.00008  -3.14156
   D10        0.00005  -0.00000  -0.00000  -0.00005  -0.00005  -0.00001
   D11        0.00006  -0.00000  -0.00000  -0.00005  -0.00005   0.00001
   D12       -3.14128  -0.00001   0.00001  -0.00037  -0.00036   3.14155
   D13        3.14135   0.00001   0.00000   0.00028   0.00028  -3.14155
   D14        0.00002  -0.00000   0.00001  -0.00004  -0.00003  -0.00001
   D15       -3.14157  -0.00000   0.00001  -0.00005  -0.00005   3.14157
   D16        0.00006  -0.00000   0.00001  -0.00009  -0.00009  -0.00002
   D17       -0.00009   0.00000  -0.00000   0.00011   0.00011   0.00002
   D18        3.14154   0.00000  -0.00000   0.00007   0.00007  -3.14158
   D19       -3.14137  -0.00001   0.00000  -0.00025  -0.00025   3.14156
   D20        0.00020  -0.00001   0.00000  -0.00023  -0.00023  -0.00003
   D21       -0.00004   0.00000  -0.00001   0.00007   0.00006   0.00002
   D22        3.14153   0.00000  -0.00001   0.00009   0.00008  -3.14157
   D23        0.00007  -0.00000   0.00000  -0.00008  -0.00008  -0.00001
   D24       -3.14156  -0.00000   0.00000  -0.00005  -0.00005   3.14158
   D25       -3.14157  -0.00000   0.00000  -0.00004  -0.00004   3.14158
   D26       -0.00001  -0.00000   0.00000  -0.00001  -0.00000  -0.00001
   D27       -0.00000  -0.00000   0.00000  -0.00001  -0.00001  -0.00001
   D28       -3.14156  -0.00000   0.00000  -0.00004  -0.00004   3.14158
   D29       -3.14157  -0.00000   0.00000  -0.00003  -0.00003   3.14158
   D30        0.00005  -0.00000   0.00000  -0.00006  -0.00006  -0.00001
         Item               Value     Threshold  Converged?
 Maximum Force            0.000907     0.000450     NO 
 RMS     Force            0.000251     0.000300     YES
 Maximum Displacement     0.005038     0.001800     NO 
 RMS     Displacement     0.001392     0.001200     NO 
 Predicted change in Energy=-6.367872D-06
 GradGradGradGradGradGradGradGradGradGradGradGradGradGradGradGradGradGrad

                          Input orientation:                          
 ---------------------------------------------------------------------
 Center     Atomic      Atomic             Coordinates (Angstroms)
 Number     Number       Type             X           Y           Z
 ---------------------------------------------------------------------
      1          8           0        0.010390   -2.114160    0.000256
      2          8           0       -2.347628   -0.809912    0.000425
      3          8           0        2.346832   -0.779889    0.000162
      4          6           0       -0.028288   -0.749544    0.000302
      5          6           0       -1.220700   -0.032751    0.000350
      6          6           0        1.191453   -0.075794    0.000259
      7          6           0       -1.207672    1.358498    0.000364
      8          6           0        1.215983    1.316368    0.000248
      9          6           0        0.017947    2.022577    0.000306
     10          1           0       -2.145935    1.911400    0.000418
     11          1           0        2.178584    1.820734    0.000193
     12          1           0        0.035930    3.110053    0.000306
     13          1           0       -0.887419   -2.459025   -0.000027
     14          1           0       -3.135640   -0.264967    0.000459
     15          1           0        2.140465   -1.719887    0.000078
 ---------------------------------------------------------------------
                    Distance matrix (angstroms):
                    1          2          3          4          5
     1  O    0.000000
     2  O    2.694683   0.000000
     3  O    2.690584   4.694557   0.000000
     4  C    1.365164   2.320126   2.375314   0.000000
     5  C    2.418233   1.368921   3.644929   1.391273   0.000000
     6  C    2.355812   3.614419   1.353016   1.393452   2.412537
     7  C    3.680086   2.449797   4.148156   2.415531   1.391310
     8  C    3.636204   4.149745   2.381830   2.411680   2.785237
     9  C    4.136744   3.690385   3.643833   2.772507   2.399712
    10  H    4.566714   2.728776   5.237174   3.400743   2.153087
    11  H    4.492712   5.235159   2.606059   3.387715   3.871762
    12  H    5.224276   4.587752   4.524590   3.860131   3.384720
    13  H    0.961766   2.202677   3.644158   1.913226   2.449058
    14  H    3.649250   0.958085   5.506601   3.144909   1.928969
    15  H    2.166257   4.579414   0.962385   2.375932   3.760832
                    6          7          8          9         10
     6  C    0.000000
     7  C    2.795173   0.000000
     8  C    1.392378   2.424020   0.000000
     9  C    2.404220   1.393966   1.390690   0.000000
    10  H    3.884212   1.089054   3.414170   2.166737   0.000000
    11  H    2.138047   3.417658   1.086732   2.170044   4.325469
    12  H    3.388931   2.148136   2.147052   1.087625   2.489438
    13  H    3.162515   3.830933   4.321793   4.572138   4.548020
    14  H    4.331227   2.520457   4.630037   3.895892   2.390835
    15  H    1.898333   4.548238   3.173880   4.302455   5.617782
                   11         12         13         14         15
    11  H    0.000000
    12  H    2.500662   0.000000
    13  H    5.264667   5.645104   0.000000
    14  H    5.708864   4.631373   3.141399   0.000000
    15  H    3.540827   5.268528   3.116794   5.473032   0.000000
 Stoichiometry    C6H6O3
 Framework group  C1[X(C6H6O3)]
 Deg. of freedom    39
 Full point group                 C1      NOp   1
 Largest Abelian subgroup         C1      NOp   1
 Largest concise Abelian subgroup C1      NOp   1
                         Standard orientation:                         
 ---------------------------------------------------------------------
 Center     Atomic      Atomic             Coordinates (Angstroms)
 Number     Number       Type             X           Y           Z
 ---------------------------------------------------------------------
      1          8           0        0.086428   -2.049125   -0.000034
      2          8           0       -2.300793   -0.799130    0.000135
      3          8           0        2.391754   -0.661783   -0.000128
      4          6           0        0.016560   -0.685750    0.000012
      5          6           0       -1.191929    0.003593    0.000060
      6          6           0        1.220578    0.015712   -0.000031
      7          6           0       -1.210712    1.394777    0.000074
      8          6           0        1.213272    1.408070   -0.000042
      9          6           0       -0.000597    2.086703    0.000016
     10          1           0       -2.161372    1.926082    0.000128
     11          1           0        2.164090    1.934313   -0.000097
     12          1           0       -0.007482    3.174306    0.000016
     13          1           0       -0.803262   -2.414427   -0.000317
     14          1           0       -3.101059   -0.272345    0.000169
     15          1           0        2.206931   -1.606254   -0.000212
 ---------------------------------------------------------------------
 Rotational constants (GHZ):           2.3444791           1.8638994           1.0383746
 Standard basis: 6-311++G(d,p) (5D, 7F)
 There are   249 symmetry adapted cartesian basis functions of A   symmetry.
 There are   240 symmetry adapted basis functions of A   symmetry.
   240 basis functions,   378 primitive gaussians,   249 cartesian basis functions
    33 alpha electrons       33 beta electrons
       nuclear repulsion energy       439.2480607573 Hartrees.
 NAtoms=   15 NActive=   15 NUniq=   15 SFac= 1.00D+00 NAtFMM=   60 NAOKFM=F Big=F
 Integral buffers will be    131072 words long.
 Raffenetti 2 integral format.
 Two-electron integral symmetry is turned on.
 R6APFD:  NTU= -4 IXU= 1 FactS= 1.050
 Nuclear repulsion after empirical dispersion term =      439.2398731808 Hartrees.
 One-electron integrals computed using PRISM.
 NBasis=   240 RedAO= T EigKep=  5.08D-06  NBF=   240
 NBsUse=   239 1.00D-06 EigRej=  8.94D-07 NBFU=   239
 Initial guess from the checkpoint file:  "PGAL0071.chk"
 B after Tr=     0.000000   -0.000000   -0.000000
         Rot=    0.999999   -0.000001   -0.000002    0.001477 Ang=  -0.17 deg.
 Requested convergence on RMS density matrix=1.00D-08 within  32 cycles.
 Requested convergence on MAX density matrix=1.00D-06.
 Requested convergence on             energy=1.00D-06.
 No special actions if energy rises.
 SCF Done:  E(RM08HX) =  -457.905229097     A.U. after    9 cycles
            NFock=  9  Conv=0.99D-08     -V/T= 2.0038
 QCSCF skips out because SCF is already converged.
 R6APFD:  NTU= -4 IXU= 1 FactS= 1.050
 Calling FoFJK, ICntrl=      2127 FMM=F ISym2X=0 I1Cent= 0 IOpClX= 0 NMat=1 NMatS=1 NMatT=0.
 ***** Axes restored to original set *****
 -------------------------------------------------------------------
 Center     Atomic                   Forces (Hartrees/Bohr)
 Number     Number              X              Y              Z
 -------------------------------------------------------------------
      1        8           0.000002958    0.000108566   -0.000000094
      2        8          -0.000198216   -0.000044758   -0.000002616
      3        8          -0.000120419    0.000124462    0.000001580
      4        6           0.000354969   -0.000080518   -0.000003035
      5        6           0.000109044    0.000118073    0.000006147
      6        6           0.000061652   -0.000416243   -0.000005700
      7        6          -0.000270981   -0.000183932   -0.000000914
      8        6          -0.000251309    0.000160958    0.000002474
      9        6           0.000311804    0.000035110    0.000000372
     10        1           0.000011328    0.000049850   -0.000000082
     11        1           0.000012693   -0.000005345   -0.000000063
     12        1          -0.000015473   -0.000003002   -0.000000023
     13        1           0.000017061    0.000098606    0.000002342
     14        1          -0.000016678    0.000044018   -0.000000587
     15        1          -0.000008432   -0.000005845    0.000000201
 -------------------------------------------------------------------
 Cartesian Forces:  Max     0.000416243 RMS     0.000127255

 GradGradGradGradGradGradGradGradGradGradGradGradGradGradGradGradGradGrad
 Berny optimization.
 Using GEDIIS/GDIIS optimizer.
 FormGI is forming the generalized inverse of G from B-inverse, IUseBI=4.
 Internal  Forces:  Max     0.000214706 RMS     0.000077173
 Search for a local minimum.
 Step number   4 out of a maximum of   76
 All quantities printed in internal units (Hartrees-Bohrs-Radians)
 Mixed Optimization -- En-DIIS/RFO-DIIS
 Swapping is turned off.
 Update second derivatives using D2CorX and points    1    2    3    4
 DE= -6.58D-06 DEPred=-6.37D-06 R= 1.03D+00
 TightC=F SS=  1.41D+00  RLast= 6.98D-03 DXNew= 7.9763D-01 2.0941D-02
 Trust test= 1.03D+00 RLast= 6.98D-03 DXMaxT set to 4.74D-01
 ITU=  1  1  1  0
     Eigenvalues ---    0.02156   0.02156   0.02157   0.02157   0.02157
     Eigenvalues ---    0.02157   0.02160   0.02163   0.02163   0.02175
     Eigenvalues ---    0.02189   0.02190   0.15220   0.16000   0.16000
     Eigenvalues ---    0.16007   0.16226   0.17218   0.20168   0.22404
     Eigenvalues ---    0.24672   0.24989   0.25010   0.27508   0.35051
     Eigenvalues ---    0.35214   0.35255   0.38899   0.42440   0.43869
     Eigenvalues ---    0.46463   0.46700   0.48699   0.50415   0.52382
     Eigenvalues ---    0.52607   0.52755   0.53613   0.57049
 En-DIIS/RFO-DIIS/Sim-DIIS IScMMF=       -3 using points:     4    3    2
 RFO step:  Lambda=-1.05812301D-06.
 DidBck=F Rises=F RFO-DIIS coefs:    1.01070   -0.01139    0.00069
 Iteration  1 RMS(Cart)=  0.00035801 RMS(Int)=  0.00000012
 Iteration  2 RMS(Cart)=  0.00000013 RMS(Int)=  0.00000001
 Variable       Old X    -DE/DX   Delta X   Delta X   Delta X     New X
                                 (Linear)    (Quad)   (Total)
    R1        2.57979  -0.00021   0.00000  -0.00038  -0.00038   2.57940
    R2        1.81747  -0.00005   0.00001  -0.00005  -0.00004   1.81743
    R3        2.58689   0.00018   0.00000   0.00037   0.00037   2.58725
    R4        1.81052   0.00004  -0.00000   0.00005   0.00005   1.81057
    R5        2.55683  -0.00017  -0.00002  -0.00045  -0.00046   2.55637
    R6        1.81864   0.00001   0.00001   0.00004   0.00005   1.81870
    R7        2.62912   0.00021  -0.00001   0.00043   0.00042   2.62954
    R8        2.63324  -0.00020   0.00001  -0.00038  -0.00037   2.63288
    R9        2.62919  -0.00008  -0.00000  -0.00020  -0.00020   2.62899
[...]
 ! D22   D(4,6,8,11)          -179.9987         -DE/DX =    0.0                 !
 ! D23   D(5,7,9,8)             -0.0006         -DE/DX =    0.0                 !
 ! D24   D(5,7,9,12)          -180.0006         -DE/DX =    0.0                 !
 ! D25   D(10,7,9,8)           179.9995         -DE/DX =    0.0                 !
 ! D26   D(10,7,9,12)           -0.0006         -DE/DX =    0.0                 !
 ! D27   D(6,8,9,7)             -0.0006         -DE/DX =    0.0                 !
 ! D28   D(6,8,9,12)           179.9995         -DE/DX =    0.0                 !
 ! D29   D(11,8,9,7)           179.9994         -DE/DX =    0.0                 !
 ! D30   D(11,8,9,12)           -0.0005         -DE/DX =    0.0                 !
 --------------------------------------------------------------------------------
 GradGradGradGradGradGradGradGradGradGradGradGradGradGradGradGradGradGrad


 ----------------------------------------------------------------------

 Electric dipole moment (input orientation):
 (Debye = 10**-18 statcoulomb cm , SI units = C m)
                  (au)            (Debye)         (10**-30 SI)
   Tot        0.121110D+01      0.307832D+01      0.102682D+02
   x         -0.120748D+01     -0.306910D+01     -0.102374D+02
   y          0.936298D-01      0.237983D+00      0.793827D+00
   z         -0.212908D-03     -0.541157D-03     -0.180511D-02

 Dipole polarizability, Alpha (input orientation).
 (esu units = cm**3 , SI units = C**2 m**2 J**-1)
 Alpha(0;0):
               (au)            (10**-24 esu)      (10**-40 SI)
   iso        0.789078D+02      0.116929D+02      0.130101D+02
   aniso      0.483854D+02      0.716997D+01      0.797767D+01
   xx         0.960016D+02      0.142260D+02      0.158285D+02
   yx        -0.944136D+00     -0.139907D+00     -0.155667D+00
   yy         0.940324D+02      0.139342D+02      0.155038D+02
   zx        -0.204788D-02     -0.303465D-03     -0.337650D-03
   zy         0.962466D-03      0.142623D-03      0.158689D-03
   zz         0.466894D+02      0.691865D+01      0.769804D+01

 ----------------------------------------------------------------------

 Dipole orientation:
     8         -0.30739914         -3.96982538         -0.32844176
     8         -0.14292959         -1.86343231          4.30477347
     8         -0.08757887         -1.12309775         -4.53553438
     6         -0.10893608         -1.41213160         -0.05620711
     6         -0.01749520         -0.23940556          2.29510055
     6          0.00250977          0.03116259         -2.25585437
     6          0.18535373          2.37585396          2.47380637
     6          0.20557082          2.64981527         -2.09868357
     6          0.29542742          3.80183801          0.26167219
     1          0.25571567          3.27774494          4.32233697
     1          0.28949839          3.73747385         -3.83860725
     1          0.45405003          5.84720492          0.38666586
     1         -0.36801717         -4.74838367          1.31271183
     1         -0.07211548         -0.95459687          5.86905693
     1         -0.22694151         -2.91887103         -4.28405096

 Electric dipole moment (dipole orientation):
 (Debye = 10**-18 statcoulomb cm , SI units = C m)
                  (au)            (Debye)         (10**-30 SI)
   Tot        0.121110D+01      0.307832D+01      0.102682D+02
   x          0.000000D+00      0.000000D+00      0.000000D+00
   y          0.000000D+00      0.000000D+00      0.000000D+00
   z          0.121110D+01      0.307832D+01      0.102682D+02

 Dipole polarizability, Alpha (dipole orientation).
 (esu units = cm**3 , SI units = C**2 m**2 J**-1)
 Alpha(0;0):
               (au)            (10**-24 esu)      (10**-40 SI)
   iso        0.789078D+02      0.116929D+02      0.130101D+02
   aniso      0.483854D+02      0.716997D+01      0.797767D+01
   xx         0.469717D+02      0.696049D+01      0.774458D+01
   yx         0.363973D+01      0.539352D+00      0.600110D+00
   yy         0.936163D+02      0.138725D+02      0.154352D+02
   zx         0.711599D-01      0.105448D-01      0.117327D-01
   zy         0.777890D+00      0.115271D+00      0.128257D+00
   zz         0.961354D+02      0.142458D+02      0.158506D+02

 ----------------------------------------------------------------------
 1\1\GINC-PITOMBA\Freq\RM08HX\6-311++G(d,p)\C6H6O3\VALTER\21-Sep-2025\0
 \\#N Geom=AllCheck Guess=TCheck SCRF=Check GenChk RM08HX/6-311++G(d,p)
  Freq\\PGAL0071\\0,1\O,0.0103901475,-2.1141603798,0.0002561448\O,-2.34
 76281859,-0.8099118679,0.0004246874\O,2.3468323484,-0.7798885849,0.000
 1623314\C,-0.0282881342,-0.7495443573,0.0003022153\C,-1.2207003241,-0.
 0327507586,0.0003503301\C,1.1914529756,-0.0757936851,0.0002591179\C,-1
 .2076715352,1.3584982576,0.0003640174\C,1.2159825719,1.316367826,0.000
 2479035\C,0.0179472079,2.0225767299,0.0003063054\H,-2.1459353242,1.911
 4000926,0.0004177788\H,2.1785838258,1.8207341154,0.0001927904\H,0.0359
 29514,3.1100527131,0.000306035\H,-0.8874192797,-2.4590254334,-0.000027
 0303\H,-3.1356403593,-0.2649673814,0.0004593525\H,2.1404645514,-1.7198
 872863,0.0000780204\\Version=ES64L-G16RevB.01\State=1-A\HF=-457.905229
 1\RMSD=7.579e-09\RMSF=1.273e-04\ZeroPoint=0.1137148\Thermal=0.1218672\
 Dipole=-1.2074784,0.0936298,-0.0002129\DipoleDeriv=-0.2981716,-0.10705
 53,0.000046,-0.0903005,-1.4988139,-0.0000471,0.0000911,0.0000137,-0.36
 87176,-1.2818769,-0.5096953,0.0000513,-0.550859,-0.5547268,0.0000156,0
 .0001032,0.000025,-0.380847,-1.1748565,0.6110093,0.0000576,0.668811,-0
 .7037197,-0.0000329,0.0000877,-0.0000193,-0.377558,-0.4384614,0.143764
 5,0.0000122,0.0599346,1.2431644,0.0000395,0.0000195,0.0000568,0.037861
 6,1.1641369,0.5499507,-0.0000602,0.393882,0.3930712,-0.0000337,-0.0001
 051,-0.0000263,0.0551728,1.176539,-0.7072702,-0.0000728,-0.5742594,0.5
 011919,0.0000287,-0.0001232,0.0000206,0.0723598,-0.1951101,-0.0027767,
 0.0000002,-0.1683054,-0.2158888,0.000014,0.0000029,-0.000011,-0.196366
 8,-0.1217316,0.0118714,-0.0000066,0.2130422,-0.1782991,-0.0000182,0.00
 00123,-0.0000144,-0.1844808,0.1918678,0.0050916,-0.0000137,-0.0147596,
 0.0160839,-0.0000004,-0.0000065,0.0000048,-0.164792,-0.0739623,0.04545
 97,0.0000129,0.0437575,0.0504011,-0.0000043,0.0000147,-0.0000019,0.166
 4911,-0.013429,-0.0404092,0.0000094,-0.0400137,0.0594373,0.0000028,0.0
 000053,0.0000082,0.1614424,0.0711086,-0.0008772,0.0000043,-0.0025897,-
 0.0716157,-0.0000003,-0.0000034,-0.0000009,0.1466111,0.2689344,0.05520
 8,-0.0000291,0.0640955,0.4189166,0.0000328,-0.0000729,-0.0000264,0.343
 7403,0.4041532,0.0429062,-0.0000039,0.092322,0.2009775,-0.000001,-0.00
 00158,-0.000001,0.3487187,0.3208595,-0.0971774,-0.0000076,-0.0947575,0
 .3398201,0.0000045,-0.0000099,-0.000028,0.3403643\Polar=96.0016475,-0.
 944136,94.0323847,-0.0020479,0.0009625,46.6893791\Quadrupole=2.4780411
 ,2.4500258,-4.9280669,-0.9602045,-0.000095,0.0015408\PG=C01 [X(C6H6O3)
 ]\NImag=0\\0.59173189,0.14861420,0.49580941,0.00015313,0.00006840,0.02
 426980,0.00336273,0.00357076,-0.00000184,0.67594714,0.00562281,0.01141
 040,-0.00000109,-0.11611815,0.40929784,-0.00000049,0.00000065,-0.00382
 380,-0.00003206,0.00000338,0.02313262,0.00607019,-0.00492994,-0.000001
 68,-0.00443152,0.00050730,0.00000018,0.38752112,-0.00764151,0.00970461
 ,-0.00000004,0.00005756,0.00203810,0.00000030,-0.00920349,0.67358474,-
 0.00000108,0.00000101,-0.00453520,0.00000010,0.00000005,-0.00023335,-0
 .00001178,0.00005804,0.02759835,-0.10938594,0.03287763,-0.00000990,-0.
 06752556,0.00938909,0.00000282,-0.05326154,-0.00060179,0.00000409,0.76
 221610,-0.01608678,-0.31340974,-0.00001777,-0.03334771,0.00413253,0.00
 000081,0.03610835,-0.00142495,-0.00000132,0.00322000,0.73071077,-0.000
 01134,-0.00000195,-0.03647673,0.00000404,-0.00000087,0.00956570,0.0000
 0526,-0.00000119,0.00910144,-0.00001173,0.00001971,0.12421612,-0.00369
 735,-0.00167466,0.00000207,-0.24130150,-0.06748172,0.00001290,0.009344
 88,-0.00550621,-0.00000032,-0.26415725,0.15380675,0.00000660,0.7109227
 3,0.03944753,-0.05446467,-0.00000114,-0.11313172,-0.17489565,0.0000077
 3,-0.01275412,-0.00406278,0.00000058,0.04507102,-0.17565818,-0.0000035
 4,-0.02121098,0.74636047,0.00000137,-0.00000173,0.00604819,0.00001160,
 0.00000414,-0.03950219,0.00000026,-0.00000048,0.00770878,0.00000585,-0
 .00000674,-0.06196198,-0.00002736,0.00000548,0.13910253,-0.00439819,-0
 .00162574,0.00000196,0.00864789,0.00566462,-0.00000015,-0.27297478,0.1
 2010180,0.00001772,-0.26885097,-0.14294828,0.00000327,-0.06706336,0.03
 564961,0.00000314,0.70637201,-0.04386361,-0.05153676,-0.00000217,0.011
 90658,-0.00562730,-0.00000061,0.06628976,-0.16544622,-0.00001239,-0.03
 886481,-0.16308424,-0.00000092,-0.03141949,0.07973934,0.00000248,-0.00
 225263,0.76591640,-0.00000029,-0.00000357,0.00817445,0.00000128,0.0000
 0027,0.00496978,0.00001169,-0.00001138,-0.04058052,0.00000568,0.000004
 03,-0.06067602,0.00000321,-0.00000223,-0.00434982,-0.00002917,0.000013
 21,0.14134709,-0.00668851,0.00078649,0.00000118,-0.00421215,-0.0492054
 8,0.00000011,-0.00337796,0.00592853,-0.00000004,0.04271830,0.02638140,
 -0.00000083,-0.13429959,0.05525770,0.00000491,-0.01974040,-0.04097086,
 0.00000019,0.73406206,-0.00183816,0.00326179,-0.00000037,-0.00794175,-
 0.02400788,0.00000019,0.00814010,-0.00058874,-0.00000082,0.08265223,-0
 .02541459,-0.00000369,-0.03244264,-0.33342600,-0.00000156,-0.03941210,
 -0.05460415,0.00000328,-0.02498468,0.68560941,0.00000068,0.00000019,0.
 00620950,0.00000070,0.00000304,0.00561535,-0.00000009,-0.00000010,-0.0
 0163572,-0.00000093,-0.00000145,0.00264459,0.00000338,-0.00000634,-0.0
 5519411,0.00000074,0.00000124,0.00045886,-0.00003255,0.00000549,0.1088
 5939,-0.00791587,-0.00160467,-0.00000084,-0.00108936,-0.00384453,0.000
 00013,0.00756719,0.04347237,0.00000078,0.04217434,-0.02733271,-0.00000
 233,-0.01997779,0.03845109,0.00000068,-0.13313367,-0.06144175,0.000006
 28,-0.05884774,-0.02482006,0.00000284,0.75033985,0.00141294,0.00837449
 ,-0.00000111,-0.00876816,-0.00109666,0.00000041,0.00613290,-0.01646212
 ,-0.00000023,-0.07911297,-0.02341570,0.00000357,0.03470210,-0.05475456
 ,-0.00000240,0.01957943,-0.33180892,0.00000079,0.03060461,0.06168625,-
 0.00000108,0.02648265,0.67446609,0.00000106,-0.00000034,0.00487311,-0.
 00000021,0.00000016,-0.00166349,0.00000009,-0.00000316,0.00537428,-0.0
 0000209,0.00000133,0.00063303,0.00000068,-0.00000194,0.00029347,0.0000
 0529,0.00000606,-0.05653928,0.00000358,0.00000091,0.00515136,-0.000034
 74,-0.00000445,0.11435856,0.00239958,0.00289085,-0.00000035,-0.0047694
 8,0.00632104,0.00000088,-0.00234803,-0.00845897,0.00000097,-0.08058855
 ,0.00041628,0.00000331,0.04405979,-0.08928110,-0.00000280,0.04732929,0
 .08801336,-0.00000297,-0.29395784,-0.05908480,0.00001194,-0.29685670,0
 .06502152,0.00001190,0.67690119,0.00004501,-0.00731108,0.00000078,0.00
 183227,-0.00368644,-0.00000033,-0.00510713,-0.00296615,0.,-0.00115080,
 0.00001134,0.00000044,-0.02885995,-0.02954485,0.00000206,0.02952966,-0
 .02959351,-0.00000327,-0.12820189,-0.17292633,0.00000575,0.13422788,-0
 .18476468,-0.00000576,-0.00220729,0.74779029,-0.00000027,-0.00000032,-
 0.00191861,0.00000070,-0.00000027,0.00740585,0.00000091,0.00000018,0.0
 0484478,0.00000446,0.00000004,0.00189491,-0.00000257,0.00000442,0.0010
 1866,-0.00000354,-0.00000423,-0.00103175,0.00001064,0.00000199,-0.0533
 6801,0.00001204,-0.00000236,-0.05316452,-0.00002551,0.00000071,0.12591
 294,0.00027162,0.00019752,0.,0.00284726,0.00036249,-0.00000033,0.00017
 363,0.00014504,0.,0.00129029,-0.00099735,0.00000017,0.00054442,-0.0037
 4094,-0.00000004,0.00001901,-0.00086676,-0.00000002,-0.26069879,0.1230
 0867,0.00001341,-0.00288183,-0.00433622,0.00000050,-0.01787072,0.01685
 387,0.00000102,0.27679945,0.00153191,-0.00146613,-0.00000016,0.0003225
 7,0.00300828,0.00000008,0.00008066,0.00036279,0.,-0.00202618,-0.004592
 93,-0.00000010,0.02888422,-0.01057704,-0.00000155,-0.00112339,-0.00159
 708,0.00000004,0.12280244,-0.13163197,-0.00000723,-0.00340202,-0.00031
 745,0.00000013,-0.01312119,0.01224650,0.00000077,-0.13243015,0.1348822
 7,-0.00000004,-0.00000005,0.00040124,-0.00000040,-0.00000015,-0.003982
 22,0.00000003,-0.00000003,-0.00005045,0.00000013,-0.00000002,0.0050488
 3,0.00000047,0.00000001,0.00196509,-0.00000003,0.00000019,-0.00122891,
 0.00001341,-0.00000666,-0.02665374,0.00000068,-0.00000009,0.00636214,0
 .00000039,-0.00000095,0.00062899,-0.00001455,0.00000781,0.02027052,0.0
 0021078,-0.00006937,0.00000004,0.00032186,-0.00001727,-0.00000006,0.00
 025608,-0.00065656,-0.00000023,0.00070151,0.00062588,0.00000018,0.0002
 1225,0.00042390,0.00000002,0.00202487,0.00205488,0.,-0.00229396,0.0040
 1610,0.00000053,-0.27878046,-0.12045944,0.00001426,-0.01659076,-0.0143
 9509,0.00000092,-0.00090448,-0.00067555,0.00000005,0.29409333,-0.00182
 889,-0.00101194,-0.00000030,-0.00023189,0.00031763,0.,0.00043076,0.002
 64805,0.00000006,0.00176155,-0.00454752,-0.00000010,0.00124069,-0.0016
 4828,-0.00000010,-0.03039901,-0.00909093,0.00000180,0.00355615,-0.0005
 8977,-0.00000008,-0.11847214,-0.12175169,0.00000720,0.01476086,0.01233
 671,-0.00000086,0.00082933,0.00041961,-0.00000002,0.12864394,0.1226866
 3,0.00000011,0.00000002,0.00007838,-0.00000019,-0.00000009,-0.00045781
 ,-0.00000041,0.00000035,-0.00351942,-0.00000012,-0.00000013,0.00543065
 ,0.00000011,-0.00000007,-0.00106597,0.00000061,0.00000025,0.00382209,0
 .00000073,-0.00000003,0.00703606,0.00001434,0.00000639,-0.03065298,0.0
 0000039,0.00000098,0.00065438,0.00000006,0.00000002,0.00055534,-0.0000
 1544,-0.00000774,0.02279979,0.00033832,0.00010631,0.,-0.00031562,-0.00
 190183,-0.00000001,0.00023688,0.00166411,0.00000007,-0.00157150,-0.000
 03421,0.,-0.00448287,-0.00199891,0.00000059,-0.00424193,0.00220335,0.0
 0000063,0.00381423,-0.02775658,-0.00000024,0.00521446,0.02722066,-0.00
 000033,-0.05783319,-0.00464856,0.00000124,0.00064620,0.00040460,-0.000
 00021,0.00059299,-0.00047798,-0.00000025,0.05777661,-0.00002894,0.0001
 5771,-0.00000006,-0.00024182,-0.00099611,-0.00000001,0.00002198,-0.001
 14888,-0.00000002,0.00022585,0.00040717,0.,-0.00275018,0.00147437,0.00
 000018,0.00271116,0.00128014,-0.00000021,0.00241334,-0.01047767,-0.000
 00012,-0.00296310,-0.01136789,0.00000021,-0.00468488,-0.33997041,0.000
 00005,-0.00032993,0.00056213,-0.00000002,0.00028941,0.00061480,0.,0.00
 499029,0.35938579,-0.00000005,-0.00000002,-0.00024674,0.00000012,0.000
 00009,0.00052361,0.00000012,0.,0.00019138,0.00000030,0.,-0.00127560,0.
 00000046,0.00000035,0.00626621,0.00000031,-0.00000079,0.00708802,-0.00
 000036,0.00000111,0.00202706,-0.00000068,-0.00000080,0.00245097,0.0000
 0173,0.00000010,-0.03351418,-0.00000026,0.,-0.00386947,-0.00000026,-0.
 00000005,-0.00416336,-0.00000147,-0.00000006,0.02456823,-0.47474155,-0
 .17639171,-0.00014522,-0.00191310,-0.00199213,0.00000033,0.00051168,-0
 .00080762,-0.00000021,0.00237258,-0.00383790,0.00000141,0.00580259,0.0
 0647309,0.00000068,0.00037453,0.00427298,0.00000013,-0.00116695,-0.000
 59420,-0.00000011,0.00011282,-0.00106930,-0.00000038,-0.00034482,0.000
 73883,0.00000004,-0.00000592,0.00036673,0.00000003,0.00010244,0.000174
 11,0.00000003,-0.00009441,-0.00006051,0.00000005,0.46919845,-0.1273755
 5,-0.09840537,-0.00004490,-0.00007018,0.00040329,-0.00000032,0.0019138
 1,0.00092654,-0.00000075,-0.04498972,-0.02402919,-0.00001239,-0.002779
 29,-0.00260048,-0.00000075,0.00250436,-0.00733001,-0.00000039,-0.00078
 368,0.00004237,0.00000054,-0.00190414,0.00029649,0.00000046,0.00033124
 ,0.00025487,-0.00000016,0.00002404,0.00022901,0.00000002,0.00009034,-0
 .00045356,0.00000008,0.00008898,0.00005598,-0.00000002,0.17397061,0.12
 941265,-0.00014357,-0.00006244,-0.00226597,0.00000099,0.00000092,-0.00
 131764,0.00000032,0.00000115,0.00054411,0.00000070,0.00000255,-0.00188
 931,-0.00000196,-0.00000169,0.00251664,0.00000040,0.00000063,-0.000001
 15,-0.00000075,0.00000037,-0.00067475,0.00000086,0.00000112,0.00113244
 ,0.00000027,-0.00000073,-0.00000622,0.00000004,0.00000011,0.00005772,0
 .,0.00000018,-0.00007797,0.00000003,0.00000006,-0.00000197,0.00014406,
 0.00005728,0.00385872,0.00123418,-0.00151187,-0.00000013,-0.36622999,0
 .21303343,0.00001590,0.00020519,-0.00066072,-0.00000007,-0.00229064,-0
 .00426755,0.00000040,-0.03622675,0.02134616,0.00000142,-0.00137220,0.0
 0184653,0.00000012,0.00505297,0.00117243,-0.00000039,0.00073947,0.0000
 1970,-0.00000003,-0.00078418,0.00048538,0.00000004,-0.00023708,-0.0014
 7374,0.00000005,0.00003784,-0.00005487,0.00000002,0.00027716,0.0002017
 9,-0.00000001,-0.00062676,0.00078018,0.00000020,0.40032542,0.00155720,
 0.00059805,-0.00000021,0.26334524,-0.22007077,-0.00001229,0.00002305,-
 0.00045848,-0.00000002,-0.00499093,-0.00474459,0.00000044,-0.02600934,
 0.01607090,0.00000088,-0.00005746,0.00196783,0.00000006,-0.00293980,0.
 00225424,0.00000016,0.00033914,-0.00092841,-0.00000005,-0.00055176,-0.
 00069799,0.00000003,0.00127847,-0.00150696,-0.00000006,0.00013793,-0.0
 0008442,0.,-0.00002391,0.00000703,0.00000002,-0.00115915,0.00147164,0.
 00000074,-0.23092343,0.20613122,0.00000046,0.00000033,-0.00001984,0.00
 001519,-0.00000970,-0.00021523,-0.00000011,0.,-0.00049436,0.00000015,-
 0.00000011,0.00128331,0.00000272,-0.00000147,-0.00180250,0.00000029,0.
 00000015,0.00136416,-0.00000037,0.,-0.00048209,0.00000004,-0.00000009,
 0.00030688,-0.00000018,-0.00000005,-0.00116304,0.00000004,0.00000005,0
 .00065845,0.,0.,0.00008705,-0.00000001,-0.00000001,-0.00000145,-0.0000
 0080,0.00000055,-0.00077468,-0.00001750,0.00001034,0.00110063,0.001208
 11,-0.00123581,0.00000159,0.00066141,-0.00033967,-0.00000013,-0.075493
 01,-0.13783254,-0.00000999,-0.00384119,0.00829383,0.00000161,0.0003198
 1,-0.00000231,-0.00000031,0.00700790,0.04309247,0.00000323,-0.00036366
 ,-0.00011457,0.00000008,-0.00666472,0.00256957,0.00000039,0.00125443,0
 .00085781,-0.00000011,0.00000694,-0.00014091,0.,0.00001571,0.00006738,
 0.00000001,-0.00035733,0.00020554,0.,0.00041843,-0.00180101,-0.0000015
 9,-0.00010463,-0.00002526,0.00000007,0.07593181,0.00043184,-0.00171079
 ,0.00000016,-0.00118362,-0.00022725,0.,-0.08765398,-0.49670653,-0.0000
 4418,-0.00346017,0.00505982,0.00000059,0.00150069,-0.00201259,0.000000
 09,0.00207795,-0.02918458,-0.00000241,-0.00064426,0.00081304,-0.000000
 02,0.00281200,0.00184475,-0.00000077,-0.00036516,-0.00117829,0.,0.0000
 0192,-0.00002104,0.00000003,-0.00000911,0.00015468,-0.00000001,0.00016
 367,0.00001582,0.00000006,-0.00008382,-0.00027423,-0.00000024,0.000006
 59,-0.00000931,0.,0.08640547,0.52343650,0.00000032,-0.00000019,-0.0007
 6778,-0.00000002,0.00000012,-0.00001716,-0.00000478,-0.00004362,-0.004
 31410,0.00000057,-0.00000093,0.00246106,-0.00000040,-0.00000016,-0.001
 04301,-0.00000084,-0.00000311,-0.00281698,0.00000015,-0.00000020,0.000
 00627,-0.00000009,0.00000033,0.00108403,0.00000004,0.00000027,0.001805
 83,-0.00000002,0.00000002,-0.00016354,-0.00000002,0.,-0.00052622,-0.00
 000002,0.00000002,-0.00004271,-0.00000003,0.00000076,-0.00109995,-0.00
 000001,-0.00000002,0.00015271,0.00000515,0.00004670,0.00528155\\-0.000
 00294,-0.00010855,0.00000009,0.00019823,0.00004475,0.00000262,0.000120
 36,-0.00012445,-0.00000158,-0.00035497,0.00008043,0.00000304,-0.000109
 18,-0.00011812,-0.00000615,-0.00006146,0.00041628,0.00000570,0.0002710
 0,0.00018407,0.00000091,0.00025129,-0.00016097,-0.00000247,-0.00031177
 ,-0.00003511,-0.00000037,-0.00001134,-0.00004985,0.00000008,-0.0000127
 2,0.00000533,0.00000006,0.00001547,0.00000298,0.00000002,-0.00001708,-
 0.00009862,-0.00000234,0.00001667,-0.00004401,0.00000059,0.00000843,0.
 00000585,-0.00000020\\\@


 GARLIC THEN HAVE POWER TO SAVE FROM DEATH
 BEAR WITH IT THOUGH IT MAKETH UNSAVORY BREATH,
 AND SCORN NOT GARLIC LIKE SOME THAT THINK
 IT ONLY MAKETH MEN WINK AND DRINK AND STINK.
   --  SIR JOHN HARRINGTON,
       "THE ENGLISHMAN'S DOCTOR", 1609
 Job cpu time:       0 days  1 hours 37 minutes  7.7 seconds.
 Elapsed time:       0 days  0 hours  6 minutes  6.5 seconds.
 File lengths (MBytes):  RWF=     89 Int=      0 D2E=      0 Chk=      6 Scr=      1
 Normal termination of Gaussian 16 at Sun Sep 21 02:56:59 2025.
