 Entering Gaussian System, Link 0=g16
 Input=PHAC0140.gjf
 Output=PHAC0140.log
 Initial command:
 /usr/local/g16/l1.exe "/dados_01/scratch/Gau-2168174.inp" -scrdir="/dados_01/scratch/"
 Entering Link 1 = /usr/local/g16/l1.exe PID=   2168175.
  
 Copyright (c) 1988-2017, Gaussian, Inc.  All Rights Reserved.
  
 This is part of the Gaussian(R) 16 program.  It is based on
 the Gaussian(R) 09 system (copyright 2009, Gaussian, Inc.),
 the Gaussian(R) 03 system (copyright 2003, Gaussian, Inc.),
 the Gaussian(R) 98 system (copyright 1998, Gaussian, Inc.),
 the Gaussian(R) 94 system (copyright 1995, Gaussian, Inc.),
 the Gaussian 92(TM) system (copyright 1992, Gaussian, Inc.),
 the Gaussian 90(TM) system (copyright 1990, Gaussian, Inc.),
 the Gaussian 88(TM) system (copyright 1988, Gaussian, Inc.),
 the Gaussian 86(TM) system (copyright 1986, Carnegie Mellon
 University), and the Gaussian 82(TM) system (copyright 1983,
 Carnegie Mellon University). Gaussian is a federally registered
 trademark of Gaussian, Inc.
  
 This software contains proprietary and confidential information,
 including trade secrets, belonging to Gaussian, Inc.
  
 This software is provided under written license and may be
 used, copied, transmitted, or stored only in accord with that
 written license.
  
 The following legend is applicable only to US Government
 contracts under FAR:
  
                    RESTRICTED RIGHTS LEGEND
  
 Use, reproduction and disclosure by the US Government is
 subject to restrictions as set forth in subparagraphs (a)
 and (c) of the Commercial Computer Software - Restricted
 Rights clause in FAR 52.227-19.
  
 Gaussian, Inc.
 340 Quinnipiac St., Bldg. 40, Wallingford CT 06492
  
  
 ---------------------------------------------------------------
 Warning -- This program may not be used in any manner that
 competes with the business of Gaussian, Inc. or will provide
 assistance to any competitor of Gaussian, Inc.  The licensee
 of this program is prohibited from giving any competitor of
 Gaussian, Inc. access to this program.  By using this program,
 the user acknowledges that Gaussian, Inc. is engaged in the
 business of creating and licensing software in the field of
 computational chemistry and represents and warrants to the
 licensee that it is not a competitor of Gaussian, Inc. and that
 it will not use this program in any manner prohibited above.
 ---------------------------------------------------------------
  

 Cite this work as:
 Gaussian 16, Revision B.01,
 M. J. Frisch, G. W. Trucks, H. B. Schlegel, G. E. Scuseria, 
 M. A. Robb, J. R. Cheeseman, G. Scalmani, V. Barone, 
 G. A. Petersson, H. Nakatsuji, X. Li, M. Caricato, A. V. Marenich, 
 J. Bloino, B. G. Janesko, R. Gomperts, B. Mennucci, H. P. Hratchian, 
 J. V. Ortiz, A. F. Izmaylov, J. L. Sonnenberg, D. Williams-Young, 
 F. Ding, F. Lipparini, F. Egidi, J. Goings, B. Peng, A. Petrone, 
 T. Henderson, D. Ranasinghe, V. G. Zakrzewski, J. Gao, N. Rega, 
 G. Zheng, W. Liang, M. Hada, M. Ehara, K. Toyota, R. Fukuda, 
 J. Hasegawa, M. Ishida, T. Nakajima, Y. Honda, O. Kitao, H. Nakai, 
 T. Vreven, K. Throssell, J. A. Montgomery, Jr., J. E. Peralta, 
 F. Ogliaro, M. J. Bearpark, J. J. Heyd, E. N. Brothers, K. N. Kudin, 
 V. N. Staroverov, T. A. Keith, R. Kobayashi, J. Normand, 
 K. Raghavachari, A. P. Rendell, J. C. Burant, S. S. Iyengar, 
 J. Tomasi, M. Cossi, J. M. Millam, M. Klene, C. Adamo, R. Cammi, 
 J. W. Ochterski, R. L. Martin, K. Morokuma, O. Farkas, 
 J. B. Foresman, and D. J. Fox, Gaussian, Inc., Wallingford CT, 2016.
 
 ******************************************
 Gaussian 16:  ES64L-G16RevB.01 20-Dec-2017
                21-Sep-2025 
 ******************************************
 %nprocs=16
 Will use up to   16 processors via shared memory.
 %mem=40GB
 %chk=PHAC0140.chk
 ----------------------------------------------------------------------
 # opt freq=noraman M08HX/6-311++G** scf=xqc Empiricaldispersion=pfd In
 t(Grid=ultraFine)
 ----------------------------------------------------------------------
 1/18=20,19=15,26=4,38=1/1,3;
 2/9=110,12=2,17=6,18=5,40=1/2;
 3/5=4,6=6,7=1111,11=2,25=1,30=1,71=1,74=-74,75=-5,124=11/1,2,3;
 4//1;
 5/5=2,8=3,13=1,38=5/2,8;
 6/7=2,8=2,9=2,10=2,28=1/1;
 7//1,2,3,16;
 1/18=20,19=15,26=4/3(2);
 2/9=110/2;
 99//99;
 2/9=110/2;
 3/5=4,6=6,7=1111,11=2,25=1,30=1,71=1,74=-74,75=-5,124=11/1,2,3;
 4/5=5,16=3,69=1/1;
 5/5=2,8=3,13=1,38=5/2,8;
 7//1,2,3,16;
 1/18=20,19=15,26=4/3(-5);
 2/9=110/2;
 6/7=2,8=2,9=2,10=2,19=2,28=1/1;
 99/9=1/99;
 --------
 PHAC0140
 --------
 Symbolic Z-matrix:
 Charge =  0 Multiplicity = 1
 O                    -2.0052    0.        0.0001 
 O                    -1.6481    2.29      0.0004 
 O                    -1.6481   -2.29      0. 
 C                     0.1197    0.6855   -0.0003 
 C                     0.1197   -0.6855   -0.0001 
 C                     1.2907    1.4175   -0.0002 
 C                     1.2907   -1.4176    0.0001 
 C                    -1.2519    1.1428   -0.0002 
 C                    -1.252    -1.1427   -0.0001 
 C                     2.4922    0.704     0. 
 C                     2.4922   -0.704     0.0002 
 H                     1.2881    2.5014   -0.0003 
 H                     1.2881   -2.5014    0.0002 
 H                     3.4378    1.2396    0.0001 
 H                     3.4378   -1.2396    0.0005 
 

 GradGradGradGradGradGradGradGradGradGradGradGradGradGradGradGradGradGrad
 Berny optimization.
 Initialization pass.
                           ----------------------------
                           !    Initial Parameters    !
                           ! (Angstroms and Degrees)  !
 --------------------------                            --------------------------
 ! Name  Definition              Value          Derivative Info.                !
 --------------------------------------------------------------------------------
 ! R1    R(1,8)                  1.3687         estimate D2E/DX2                !
 ! R2    R(1,9)                  1.3686         estimate D2E/DX2                !
 ! R3    R(2,8)                  1.2137         estimate D2E/DX2                !
 ! R4    R(3,9)                  1.2138         estimate D2E/DX2                !
 ! R5    R(4,5)                  1.371          estimate D2E/DX2                !
 ! R6    R(4,6)                  1.381          estimate D2E/DX2                !
 ! R7    R(4,8)                  1.4458         estimate D2E/DX2                !
 ! R8    R(5,7)                  1.381          estimate D2E/DX2                !
 ! R9    R(5,9)                  1.4459         estimate D2E/DX2                !
 ! R10   R(6,10)                 1.3974         estimate D2E/DX2                !
 ! R11   R(6,12)                 1.0839         estimate D2E/DX2                !
 ! R12   R(7,11)                 1.3974         estimate D2E/DX2                !
 ! R13   R(7,13)                 1.0838         estimate D2E/DX2                !
 ! R14   R(10,11)                1.408          estimate D2E/DX2                !
 ! R15   R(10,14)                1.0868         estimate D2E/DX2                !
 ! R16   R(11,15)                1.0868         estimate D2E/DX2                !
 ! A1    A(8,1,9)              113.2178         estimate D2E/DX2                !
 ! A2    A(5,4,6)              122.0098         estimate D2E/DX2                !
 ! A3    A(5,4,8)              108.4387         estimate D2E/DX2                !
 ! A4    A(6,4,8)              129.5515         estimate D2E/DX2                !
 ! A5    A(4,5,7)              122.0133         estimate D2E/DX2                !
 ! A6    A(4,5,9)              108.4337         estimate D2E/DX2                !
 ! A7    A(7,5,9)              129.553          estimate D2E/DX2                !
 ! A8    A(4,6,10)             117.2866         estimate D2E/DX2                !
 ! A9    A(4,6,12)             121.8723         estimate D2E/DX2                !
 ! A10   A(10,6,12)            120.841          estimate D2E/DX2                !
 ! A11   A(5,7,11)             117.2796         estimate D2E/DX2                !
 ! A12   A(5,7,13)             121.8758         estimate D2E/DX2                !
 ! A13   A(11,7,13)            120.8446         estimate D2E/DX2                !
 ! A14   A(1,8,2)              127.5553         estimate D2E/DX2                !
 ! A15   A(1,8,4)              104.953          estimate D2E/DX2                !
 ! A16   A(2,8,4)              127.4917         estimate D2E/DX2                !
 ! A17   A(1,9,3)              127.5625         estimate D2E/DX2                !
 ! A18   A(1,9,5)              104.9568         estimate D2E/DX2                !
 ! A19   A(3,9,5)              127.4807         estimate D2E/DX2                !
 ! A20   A(6,10,11)            120.7036         estimate D2E/DX2                !
 ! A21   A(6,10,14)            119.7686         estimate D2E/DX2                !
 ! A22   A(11,10,14)           119.5278         estimate D2E/DX2                !
 ! A23   A(7,11,10)            120.7071         estimate D2E/DX2                !
 ! A24   A(7,11,15)            119.7651         estimate D2E/DX2                !
 ! A25   A(10,11,15)           119.5278         estimate D2E/DX2                !
 ! D1    D(9,1,8,2)           -179.9691         estimate D2E/DX2                !
 ! D2    D(9,1,8,4)             -0.0137         estimate D2E/DX2                !
 ! D3    D(8,1,9,3)           -179.9951         estimate D2E/DX2                !
 ! D4    D(8,1,9,5)              0.0195         estimate D2E/DX2                !
 ! D5    D(6,4,5,7)             -0.0056         estimate D2E/DX2                !
 ! D6    D(6,4,5,9)            179.9927         estimate D2E/DX2                !
 ! D7    D(8,4,5,7)           -179.9885         estimate D2E/DX2                !
 ! D8    D(8,4,5,9)              0.0097         estimate D2E/DX2                !
 ! D9    D(5,4,6,10)             0.0054         estimate D2E/DX2                !
 ! D10   D(5,4,6,12)          -179.9964         estimate D2E/DX2                !
 ! D11   D(8,4,6,10)           179.9843         estimate D2E/DX2                !
 ! D12   D(8,4,6,12)            -0.0174         estimate D2E/DX2                !
 ! D13   D(5,4,8,1)              0.0018         estimate D2E/DX2                !
 ! D14   D(5,4,8,2)            179.9572         estimate D2E/DX2                !
 ! D15   D(6,4,8,1)           -179.9794         estimate D2E/DX2                !
 ! D16   D(6,4,8,2)             -0.024          estimate D2E/DX2                !
 ! D17   D(4,5,7,11)             0.005          estimate D2E/DX2                !
 ! D18   D(4,5,7,13)          -179.9964         estimate D2E/DX2                !
 ! D19   D(9,5,7,11)          -179.9928         estimate D2E/DX2                !
 ! D20   D(9,5,7,13)             0.0058         estimate D2E/DX2                !
 ! D21   D(4,5,9,1)             -0.0175         estimate D2E/DX2                !
 ! D22   D(4,5,9,3)            179.9971         estimate D2E/DX2                !
 ! D23   D(7,5,9,1)            179.9806         estimate D2E/DX2                !
 ! D24   D(7,5,9,3)             -0.0048         estimate D2E/DX2                !
 ! D25   D(4,6,10,11)           -0.005          estimate D2E/DX2                !
 ! D26   D(4,6,10,14)         -179.9991         estimate D2E/DX2                !
 ! D27   D(12,6,10,11)         179.9967         estimate D2E/DX2                !
 ! D28   D(12,6,10,14)           0.0026         estimate D2E/DX2                !
 ! D29   D(5,7,11,10)           -0.0047         estimate D2E/DX2                !
 ! D30   D(5,7,11,15)          179.9913         estimate D2E/DX2                !
 ! D31   D(13,7,11,10)         179.9967         estimate D2E/DX2                !
 ! D32   D(13,7,11,15)          -0.0073         estimate D2E/DX2                !
 ! D33   D(6,10,11,7)            0.0049         estimate D2E/DX2                !
 ! D34   D(6,10,11,15)        -179.9911         estimate D2E/DX2                !
 ! D35   D(14,10,11,7)         179.9989         estimate D2E/DX2                !
 ! D36   D(14,10,11,15)          0.0029         estimate D2E/DX2                !
 --------------------------------------------------------------------------------
 Trust Radius=3.00D-01 FncErr=1.00D-07 GrdErr=1.00D-06 EigMax=2.50D+02 EigMin=1.00D-04
 Number of steps in this run=     87 maximum allowed number of steps=    100.
 GradGradGradGradGradGradGradGradGradGradGradGradGradGradGradGradGradGrad

                          Input orientation:                          
 ---------------------------------------------------------------------
 Center     Atomic      Atomic             Coordinates (Angstroms)
 Number     Number       Type             X           Y           Z
 ---------------------------------------------------------------------
      1          8           0       -2.005200    0.000000    0.000100
      2          8           0       -1.648100    2.290000    0.000400
      3          8           0       -1.648100   -2.290000    0.000000
      4          6           0        0.119700    0.685500   -0.000300
      5          6           0        0.119700   -0.685500   -0.000100
      6          6           0        1.290700    1.417500   -0.000200
      7          6           0        1.290700   -1.417600    0.000100
      8          6           0       -1.251900    1.142800   -0.000200
      9          6           0       -1.252000   -1.142700   -0.000100
     10          6           0        2.492200    0.704000    0.000000
     11          6           0        2.492200   -0.704000    0.000200
     12          1           0        1.288100    2.501400   -0.000300
     13          1           0        1.288100   -2.501400    0.000200
     14          1           0        3.437800    1.239600    0.000100
     15          1           0        3.437800   -1.239600    0.000500
 ---------------------------------------------------------------------
                    Distance matrix (angstroms):
                    1          2          3          4          5
     1  O    0.000000
     2  O    2.317676   0.000000
     3  O    2.317676   4.580000   0.000000
     4  C    2.232736   2.387370   3.461028   0.000000
     5  C    2.232736   3.461028   2.387370   1.371000   0.000000
     6  C    3.587794   3.065583   4.730973   1.380965   2.407042
     7  C    3.587833   4.731051   3.065555   2.407129   1.381018
     8  C    1.368741   1.213690   3.455588   1.445825   2.285600
     9  C    1.368603   3.455477   1.213751   2.285580   1.445888
    10  C    4.552167   4.433676   5.109415   2.372572   2.749448
    11  C    4.552167   5.109415   4.433676   2.749448   2.372572
    12  H    4.135556   2.943800   5.619500   2.159317   3.394332
    13  H    4.135556   5.619500   2.943800   3.394332   2.159317
    14  H    5.582370   5.193238   6.190675   3.364047   3.836118
    15  H    5.582370   6.190675   5.193238   3.836118   3.364047
                    6          7          8          9         10
     6  C    0.000000
     7  C    2.835100   0.000000
     8  C    2.557396   3.608388   0.000000
     9  C    3.608316   2.557517   2.285500   0.000000
    10  C    1.397385   2.438194   3.769725   4.174845   0.000000
    11  C    2.438107   1.397436   4.174800   3.769813   1.408000
    12  H    1.083903   3.919001   2.880520   4.442024   2.163447
    13  H    3.918901   1.083803   4.442048   2.880655   3.424098
    14  H    2.154457   3.416248   4.690699   5.260188   1.086751
    15  H    3.416170   2.154466   5.260144   4.690801   2.161421
                   11         12         13         14         15
    11  C    0.000000
    12  H    3.424098   0.000000
    13  H    2.163447   5.002800   0.000000
    14  H    2.161421   2.492659   4.314660   0.000000
    15  H    1.086751   4.314660   2.492659   2.479200   0.000000
 Stoichiometry    C8H4O3
 Framework group  C1[X(C8H4O3)]
 Deg. of freedom    39
 Full point group                 C1      NOp   1
 Largest Abelian subgroup         C1      NOp   1
 Largest concise Abelian subgroup C1      NOp   1
                         Standard orientation:                         
 ---------------------------------------------------------------------
 Center     Atomic      Atomic             Coordinates (Angstroms)
 Number     Number       Type             X           Y           Z
 ---------------------------------------------------------------------
      1          8           0        1.990047    0.000026    0.000088
      2          8           0        1.632977   -2.289979    0.000388
      3          8           0        1.632918    2.290021   -0.000012
      4          6           0       -0.134844   -0.685502   -0.000312
      5          6           0       -0.134861    0.685498   -0.000112
      6          6           0       -1.305834   -1.417517   -0.000212
      7          6           0       -1.305871    1.417583    0.000088
      8          6           0        1.236762   -1.142784   -0.000212
      9          6           0        1.236833    1.142716   -0.000112
     10          6           0       -2.507344   -0.704032   -0.000012
     11          6           0       -2.507362    0.703968    0.000188
     12          1           0       -1.303220   -2.501417   -0.000312
     13          1           0       -1.303285    2.501383    0.000188
     14          1           0       -3.452937   -1.239644    0.000088
     15          1           0       -3.452969    1.239556    0.000488
 ---------------------------------------------------------------------
 Rotational constants (GHZ):           1.7657783           1.2495108           0.7317239
 Standard basis: 6-311++G(d,p) (5D, 7F)
 There are   281 symmetry adapted cartesian basis functions of A   symmetry.
 There are   270 symmetry adapted basis functions of A   symmetry.
   270 basis functions,   432 primitive gaussians,   281 cartesian basis functions
    38 alpha electrons       38 beta electrons
       nuclear repulsion energy       561.7913534066 Hartrees.
 NAtoms=   15 NActive=   15 NUniq=   15 SFac= 1.00D+00 NAtFMM=   60 NAOKFM=F Big=F
 Integral buffers will be    131072 words long.
 Raffenetti 2 integral format.
 Two-electron integral symmetry is turned on.
 R6APFD:  NTU= -4 IXU= 1 FactS= 1.050
 Nuclear repulsion after empirical dispersion term =      561.7815628455 Hartrees.
 One-electron integrals computed using PRISM.
 NBasis=   270 RedAO= T EigKep=  1.23D-06  NBF=   270
 NBsUse=   269 1.00D-06 EigRej=  4.39D-07 NBFU=   269
 ExpMin= 3.60D-02 ExpMax= 8.59D+03 ExpMxC= 1.30D+03 IAcc=3 IRadAn=         5 AccDes= 0.00D+00
 Harris functional with IExCor= 1009 and IRadAn=       5 diagonalized for initial guess.
 HarFok:  IExCor= 1009 AccDes= 0.00D+00 IRadAn=         5 IDoV= 1 UseB2=F ITyADJ=14
 ICtDFT=  3500011 ScaDFX=  1.000000  1.000000  1.000000  1.000000
 FoFCou: FMM=F IPFlag=           0 FMFlag=      100000 FMFlg1=           0
         NFxFlg=           0 DoJE=T BraDBF=F KetDBF=T FulRan=T
         wScrn=  0.000000 ICntrl=       500 IOpCl=  0 I1Cent=   200000004 NGrid=           0
         NMat0=    1 NMatS0=      1 NMatT0=    0 NMatD0=    1 NMtDS0=    0 NMtDT0=    0
 Petite list used in FoFCou.
 Requested convergence on RMS density matrix=1.00D-08 within  32 cycles.
 Requested convergence on MAX density matrix=1.00D-06.
 Requested convergence on             energy=1.00D-06.
 No special actions if energy rises.
 SCF Done:  E(RM08HX) =  -532.910782739     A.U. after   15 cycles
            NFock= 15  Conv=0.54D-08     -V/T= 2.0038
 QCSCF skips out because SCF is already converged.

 **********************************************************************

            Population analysis using the SCF Density.

 **********************************************************************

 Orbital symmetries:
       Occupied  (A) (A) (A) (A) (A) (A) (A) (A) (A) (A) (A) (A)
                 (A) (A) (A) (A) (A) (A) (A) (A) (A) (A) (A) (A)
                 (A) (A) (A) (A) (A) (A) (A) (A) (A) (A) (A) (A)
                 (A) (A)
       Virtual   (A) (A) (A) (A) (A) (A) (A) (A) (A) (A) (A) (A)
                 (A) (A) (A) (A) (A) (A) (A) (A) (A) (A) (A) (A)
                 (A) (A) (A) (A) (A) (A) (A) (A) (A) (A) (A) (A)
                 (A) (A) (A) (A) (A) (A) (A) (A) (A) (A) (A) (A)
                 (A) (A) (A) (A) (A) (A) (A) (A) (A) (A) (A) (A)
                 (A) (A) (A) (A) (A) (A) (A) (A) (A) (A) (A) (A)
                 (A) (A) (A) (A) (A) (A) (A) (A) (A) (A) (A) (A)
                 (A) (A) (A) (A) (A) (A) (A) (A) (A) (A) (A) (A)
                 (A) (A) (A) (A) (A) (A) (A) (A) (A) (A) (A) (A)
                 (A) (A) (A) (A) (A) (A) (A) (A) (A) (A) (A) (A)
                 (A) (A) (A) (A) (A) (A) (A) (A) (A) (A) (A) (A)
                 (A) (A) (A) (A) (A) (A) (A) (A) (A) (A) (A) (A)
                 (A) (A) (A) (A) (A) (A) (A) (A) (A) (A) (A) (A)
                 (A) (A) (A) (A) (A) (A) (A) (A) (A) (A) (A) (A)
                 (A) (A) (A) (A) (A) (A) (A) (A) (A) (A) (A) (A)
                 (A) (A) (A) (A) (A) (A) (A) (A) (A) (A) (A) (A)
                 (A) (A) (A) (A) (A) (A) (A) (A) (A) (A) (A) (A)
                 (A) (A) (A) (A) (A) (A) (A) (A) (A) (A) (A) (A)
                 (A) (A) (A) (A) (A) (A) (A) (A) (A) (A) (A) (A)
                 (A) (A) (A)
 The electronic state is 1-A.
 Alpha  occ. eigenvalues --  -19.70205 -19.64261 -19.64258 -10.70657 -10.70655
 Alpha  occ. eigenvalues --  -10.58584 -10.58563 -10.58516 -10.58456 -10.58440
 Alpha  occ. eigenvalues --  -10.58360  -1.29926  -1.20979  -1.17610  -1.03018
 Alpha  occ. eigenvalues --   -0.92704  -0.90798  -0.82498  -0.77719  -0.74825
 Alpha  occ. eigenvalues --   -0.69172  -0.63099  -0.61065  -0.60616  -0.58653
 Alpha  occ. eigenvalues --   -0.56016  -0.55684  -0.54933  -0.50548  -0.50034
 Alpha  occ. eigenvalues --   -0.48691  -0.47770  -0.46438  -0.42009  -0.40084
 Alpha  occ. eigenvalues --   -0.38639  -0.36124  -0.35869
 Alpha virt. eigenvalues --   -0.08730  -0.04963  -0.03663  -0.01748  -0.01240
 Alpha virt. eigenvalues --    0.00798   0.01151   0.01458   0.02737   0.02927
 Alpha virt. eigenvalues --    0.04135   0.04174   0.04683   0.05452   0.06544
 Alpha virt. eigenvalues --    0.07394   0.07868   0.08968   0.09362   0.09447
 Alpha virt. eigenvalues --    0.09790   0.09982   0.10464   0.10690   0.11796
 Alpha virt. eigenvalues --    0.12575   0.12747   0.13810   0.14988   0.14991
 Alpha virt. eigenvalues --    0.15436   0.16617   0.17439   0.19532   0.20070
 Alpha virt. eigenvalues --    0.20743   0.20959   0.21565   0.21817   0.22648
 Alpha virt. eigenvalues --    0.22866   0.23358   0.24799   0.26145   0.26771
 Alpha virt. eigenvalues --    0.27340   0.28412   0.28668   0.28758   0.28828
 Alpha virt. eigenvalues --    0.29331   0.30313   0.30439   0.31354   0.33737
 Alpha virt. eigenvalues --    0.35028   0.35255   0.35462   0.36074   0.39522
 Alpha virt. eigenvalues --    0.39726   0.41590   0.44663   0.46653   0.47154
 Alpha virt. eigenvalues --    0.51015   0.51076   0.53489   0.55540   0.55937
 Alpha virt. eigenvalues --    0.56208   0.56849   0.58107   0.60731   0.61300
 Alpha virt. eigenvalues --    0.63050   0.64811   0.65830   0.66550   0.68138
 Alpha virt. eigenvalues --    0.68599   0.71189   0.72140   0.72686   0.73417
 Alpha virt. eigenvalues --    0.76699   0.79569   0.80249   0.82333   0.84703
 Alpha virt. eigenvalues --    0.85116   0.86203   0.87639   0.91059   0.91238
 Alpha virt. eigenvalues --    0.93265   0.94935   0.96810   0.99461   0.99653
 Alpha virt. eigenvalues --    0.99793   1.00193   1.01446   1.05512   1.06910
 Alpha virt. eigenvalues --    1.07564   1.08898   1.10775   1.14801   1.14888
 Alpha virt. eigenvalues --    1.17885   1.19996   1.20679   1.20897   1.22076
 Alpha virt. eigenvalues --    1.24352   1.27236   1.30356   1.33362   1.38698
 Alpha virt. eigenvalues --    1.39488   1.43166   1.43180   1.50821   1.51292
 Alpha virt. eigenvalues --    1.53118   1.56507   1.56565   1.56982   1.59212
 Alpha virt. eigenvalues --    1.62986   1.63698   1.70475   1.70547   1.75699
 Alpha virt. eigenvalues --    1.76525   1.77469   1.79468   1.82950   1.84018
 Alpha virt. eigenvalues --    1.85435   1.87136   1.92075   1.93780   1.93889
 Alpha virt. eigenvalues --    1.94606   1.95175   1.96217   1.99440   2.04838
 Alpha virt. eigenvalues --    2.09361   2.09605   2.12360   2.13495   2.21522
 Alpha virt. eigenvalues --    2.28235   2.30014   2.37304   2.38147   2.44223
 Alpha virt. eigenvalues --    2.44627   2.58308   2.60466   2.66031   2.66988
 Alpha virt. eigenvalues --    2.67071   2.68004   2.69917   2.70176   2.70779
 Alpha virt. eigenvalues --    2.73432   2.82760   2.83610   2.84491   2.89401
 Alpha virt. eigenvalues --    2.89619   2.90373   2.90376   2.93027   2.97928
 Alpha virt. eigenvalues --    3.02028   3.02905   3.04696   3.07160   3.14098
 Alpha virt. eigenvalues --    3.14523   3.20474   3.24789   3.25707   3.31856
 Alpha virt. eigenvalues --    3.40473   3.42081   3.42386   3.42393   3.50735
 Alpha virt. eigenvalues --    3.52453   3.54315   3.58001   3.59651   3.70598
 Alpha virt. eigenvalues --    3.70657   3.83352   3.84656   4.03402   4.05562
 Alpha virt. eigenvalues --    4.06725   4.21588   4.22948   4.35349   4.42359
 Alpha virt. eigenvalues --    4.88555   5.04747   5.09948   5.13628   5.24320
 Alpha virt. eigenvalues --    5.29468   5.49348   5.78497   5.83451   6.05610
 Alpha virt. eigenvalues --   23.60490  23.89776  23.92042  23.99107  23.99628
 Alpha virt. eigenvalues --   24.12232  24.12907  24.24025  49.86596  50.01196
 Alpha virt. eigenvalues --   50.06402
          Condensed to atoms (all electrons):
               1          2          3          4          5          6
     1  O    8.302701  -0.054682  -0.054694  -0.125899  -0.126620  -0.294572
     2  O   -0.054682   7.953596   0.000856   0.310539  -0.320617   0.005511
     3  O   -0.054694   0.000856   7.953600  -0.320538   0.310519   0.016734
     4  C   -0.125899   0.310539  -0.320538  31.715257 -19.164748  -4.073636
     5  C   -0.126620  -0.320617   0.310519 -19.164748  31.710639  -2.880992
     6  C   -0.294572   0.005511   0.016734  -4.073636  -2.880992  13.411887
     7  C   -0.294727   0.016762   0.005407  -2.886499  -4.069518   5.072275
     8  C    0.287958   0.221064   0.070032  -6.473625   5.550501  -1.296969
     9  C    0.288010   0.070013   0.221150   5.552354  -6.473422  -1.347131
    10  C    0.067014   0.082355  -0.029349   2.359998  -1.225149  -1.728764
    11  C    0.067019  -0.029351   0.082356  -1.223913   2.358500  -0.782176
    12  H   -0.003729  -0.008887   0.000949  -0.196821   0.045180   0.490067
    13  H   -0.003727   0.000950  -0.008885   0.045139  -0.196731   0.057701
    14  H   -0.000299   0.002094  -0.000459   0.044952  -0.002656  -0.081272
    15  H   -0.000299  -0.000458   0.002093  -0.002656   0.044938   0.018385
               7          8          9         10         11         12
     1  O   -0.294727   0.287958   0.288010   0.067014   0.067019  -0.003729
     2  O    0.016762   0.221064   0.070013   0.082355  -0.029351  -0.008887
     3  O    0.005407   0.070032   0.221150  -0.029349   0.082356   0.000949
     4  C   -2.886499  -6.473625   5.552354   2.359998  -1.223913  -0.196821
     5  C   -4.069518   5.550501  -6.473422  -1.225149   2.358500   0.045180
     6  C    5.072275  -1.296969  -1.347131  -1.728764  -0.782176   0.490067
     7  C   13.414483  -1.346193  -1.298775  -0.782677  -1.728363   0.057734
     8  C   -1.346193  11.132833  -2.218564  -1.634790   1.692903   0.048263
     9  C   -1.298775  -2.218564  11.132841   1.693061  -1.634401  -0.069075
    10  C   -0.782677  -1.634790   1.693061   9.473164  -2.354259  -0.090475
    11  C   -1.728363   1.692903  -1.634401  -2.354259   9.472170   0.049319
    12  H    0.057734   0.048263  -0.069075  -0.090475   0.049319   0.380592
    13  H    0.490040  -0.069060   0.048255   0.049318  -0.090447   0.001363
    14  H    0.018368  -0.047188   0.029859   0.467308  -0.113665  -0.006357
    15  H   -0.081252   0.029856  -0.047183  -0.113670   0.467275   0.001901
              13         14         15
     1  O   -0.003727  -0.000299  -0.000299
     2  O    0.000950   0.002094  -0.000458
     3  O   -0.008885  -0.000459   0.002093
     4  C    0.045139   0.044952  -0.002656
     5  C   -0.196731  -0.002656   0.044938
     6  C    0.057701  -0.081272   0.018385
     7  C    0.490040   0.018368  -0.081252
     8  C   -0.069060  -0.047188   0.029856
     9  C    0.048255   0.029859  -0.047183
    10  C    0.049318   0.467308  -0.113670
    11  C   -0.090447  -0.113665   0.467275
    12  H    0.001363  -0.006357   0.001901
    13  H    0.380585   0.001900  -0.006357
    14  H    0.001900   0.391451  -0.007501
    15  H   -0.006357  -0.007501   0.391449
 Mulliken charges:
               1
     1  O   -0.053455
     2  O   -0.249745
     3  O   -0.249771
     4  C    0.440096
     5  C    0.440175
     6  C   -0.587048
     7  C   -0.587065
     8  C    0.052979
     9  C    0.053009
    10  C   -0.233083
    11  C   -0.232967
    12  H    0.299976
    13  H    0.299957
    14  H    0.303465
    15  H    0.303479
 Sum of Mulliken charges =  -0.00000
 Mulliken charges with hydrogens summed into heavy atoms:
               1
     1  O   -0.053455
     2  O   -0.249745
     3  O   -0.249771
     4  C    0.440096
     5  C    0.440175
     6  C   -0.287072
     7  C   -0.287109
     8  C    0.052979
     9  C    0.053009
    10  C    0.070381
    11  C    0.070512
 Electronic spatial extent (au):  <R**2>=           1453.6508
 Charge=             -0.0000 electrons
 Dipole moment (field-independent basis, Debye):
    X=             -5.7367    Y=             -0.0010    Z=             -0.0011  Tot=              5.7367
 Quadrupole moment (field-independent basis, Debye-Ang):
   XX=            -61.7143   YY=            -68.6513   ZZ=            -62.3980
   XY=             -0.0017   XZ=             -0.0040   YZ=              0.0030
 Traceless Quadrupole moment (field-independent basis, Debye-Ang):
   XX=              2.5402   YY=             -4.3968   ZZ=              1.8565
   XY=             -0.0017   XZ=             -0.0040   YZ=              0.0030
 Octapole moment (field-independent basis, Debye-Ang**2):
  XXX=            -32.5949  YYY=             -0.0062  ZZZ=              0.0022  XYY=            -31.3851
  XXY=             -0.0025  XXZ=              0.0009  XZZ=             13.4200  YZZ=             -0.0006
  YYZ=             -0.0029  XYZ=              0.0014
 Hexadecapole moment (field-independent basis, Debye-Ang**3):
 XXXX=          -1019.7957 YYYY=           -799.2872 ZZZZ=            -64.8198 XXXY=             -0.0050
 XXXZ=             -0.0282 YYYX=             -0.0141 YYYZ=              0.0136 ZZZX=             -0.0002
 ZZZY=             -0.0027 XXYY=           -324.4492 XXZZ=           -200.7343 YYZZ=           -137.2262
 XXYZ=              0.0119 YYXZ=             -0.0094 ZZXY=             -0.0015
 N-N= 5.617815628455D+02 E-N=-2.367926586523D+03  KE= 5.309032649614D+02
 R6APFD:  NTU= -4 IXU= 1 FactS= 1.050
 Calling FoFJK, ICntrl=      2127 FMM=F ISym2X=0 I1Cent= 0 IOpClX= 0 NMat=1 NMatS=1 NMatT=0.
 ***** Axes restored to original set *****
 -------------------------------------------------------------------
 Center     Atomic                   Forces (Hartrees/Bohr)
 Number     Number              X              Y              Z
 -------------------------------------------------------------------
      1        8          -0.047453563    0.000031265   -0.000027408
      2        8           0.000926791   -0.048611613   -0.000056323
      3        8           0.000928097    0.048673108   -0.000010793
      4        6           0.025824330    0.006826173   -0.000020219
      5        6           0.025802193   -0.006864675   -0.000017848
      6        6           0.009571596    0.000042011   -0.000008449
      7        6           0.009557263    0.000103849    0.000000156
      8        6          -0.007444066    0.043834000    0.000106803
      9        6          -0.007384831   -0.043932643    0.000028190
     10        6          -0.003733678   -0.006113421    0.000008929
     11        6          -0.003752906    0.006076737   -0.000001060
     12        1          -0.002305932    0.002750338   -0.000000219
     13        1          -0.002306636   -0.002816177    0.000003742
     14        1           0.000884272    0.000305780   -0.000000565
     15        1           0.000887070   -0.000304733   -0.000004936
 -------------------------------------------------------------------
 Cartesian Forces:  Max     0.048673108 RMS     0.016790697

 GradGradGradGradGradGradGradGradGradGradGradGradGradGradGradGradGradGrad
 Berny optimization.
 FormGI is forming the generalized inverse of G from B-inverse, IUseBI=4.
 Internal  Forces:  Max     0.046311192 RMS     0.010714988
 Search for a local minimum.
 Step number   1 out of a maximum of   87
 All quantities printed in internal units (Hartrees-Bohrs-Radians)
 Mixed Optimization -- RFO/linear search
 Second derivative matrix not updated -- first step.
 ITU=  0
     Eigenvalues ---    0.01658   0.01683   0.01840   0.02033   0.02044
     Eigenvalues ---    0.02069   0.02073   0.02105   0.02186   0.02233
     Eigenvalues ---    0.02244   0.02257   0.16000   0.16000   0.16000
     Eigenvalues ---    0.16000   0.22000   0.22619   0.24542   0.25000
     Eigenvalues ---    0.25000   0.25000   0.25000   0.35191   0.35191
     Eigenvalues ---    0.35527   0.35539   0.36222   0.38207   0.40837
     Eigenvalues ---    0.42823   0.45065   0.46027   0.47869   0.48436
     Eigenvalues ---    0.50015   0.50572   0.98206   0.98235
 RFO step:  Lambda=-1.87109337D-02 EMin= 1.65766520D-02
 Linear search not attempted -- first point.
 Iteration  1 RMS(Cart)=  0.04034255 RMS(Int)=  0.00083870
 Iteration  2 RMS(Cart)=  0.00104324 RMS(Int)=  0.00003599
 Iteration  3 RMS(Cart)=  0.00000081 RMS(Int)=  0.00003599
 Variable       Old X    -DE/DX   Delta X   Delta X   Delta X     New X
                                 (Linear)    (Quad)   (Total)
    R1        2.58655   0.00798   0.00000   0.01425   0.01418   2.60072
    R2        2.58628   0.00802   0.00000   0.01431   0.01424   2.60053
    R3        2.29354  -0.04625   0.00000  -0.04620  -0.04620   2.24734
    R4        2.29366  -0.04631   0.00000  -0.04628  -0.04628   2.24738
    R5        2.59081   0.00790   0.00000   0.01723   0.01732   2.60814
    R6        2.60965   0.00363   0.00000   0.00785   0.00785   2.61750
    R7        2.73221   0.02909   0.00000   0.07192   0.07194   2.80415
    R8        2.60975   0.00358   0.00000   0.00774   0.00774   2.61749
    R9        2.73233   0.02906   0.00000   0.07186   0.07188   2.80421
   R10        2.64067  -0.00091   0.00000  -0.00261  -0.00262   2.63806
   R11        2.04828   0.00276   0.00000   0.00737   0.00737   2.05565
   R12        2.64077  -0.00094   0.00000  -0.00269  -0.00269   2.63808
   R13        2.04809   0.00282   0.00000   0.00754   0.00754   2.05563
   R14        2.66073  -0.00279   0.00000  -0.00751  -0.00751   2.65322
   R15        2.05366   0.00092   0.00000   0.00248   0.00248   2.05614
   R16        2.05366   0.00092   0.00000   0.00249   0.00249   2.05615
    A1        1.97602  -0.01800   0.00000  -0.06946  -0.06963   1.90640
    A2        2.12947  -0.00039   0.00000   0.00127   0.00123   2.13070
    A3        1.89261  -0.00745   0.00000  -0.02660  -0.02649   1.86613
    A4        2.26110   0.00783   0.00000   0.02533   0.02526   2.28636
    A5        2.12953  -0.00040   0.00000   0.00121   0.00117   2.13071
    A6        1.89253  -0.00743   0.00000  -0.02653  -0.02642   1.86611
    A7        2.26113   0.00783   0.00000   0.02532   0.02524   2.28637
    A8        2.04704  -0.00265   0.00000  -0.01037  -0.01035   2.03669
    A9        2.12707  -0.00103   0.00000  -0.00799  -0.00800   2.11907
   A10        2.10907   0.00368   0.00000   0.01836   0.01835   2.12742
   A11        2.04692  -0.00261   0.00000  -0.01027  -0.01024   2.03667
   A12        2.12713  -0.00105   0.00000  -0.00805  -0.00806   2.11908
   A13        2.10914   0.00366   0.00000   0.01831   0.01830   2.12744
   A14        2.22626  -0.02542   0.00000  -0.09464  -0.09462   2.13164
   A15        1.83178   0.01644   0.00000   0.06131   0.06128   1.89306
   A16        2.22515   0.00897   0.00000   0.03333   0.03334   2.25849
   A17        2.22639  -0.02543   0.00000  -0.09469  -0.09467   2.13171
   A18        1.83184   0.01644   0.00000   0.06128   0.06125   1.89309
   A19        2.22496   0.00899   0.00000   0.03341   0.03342   2.25838
   A20        2.10667   0.00302   0.00000   0.00909   0.00911   2.11578
   A21        2.09036  -0.00134   0.00000  -0.00357  -0.00358   2.08678
   A22        2.08615  -0.00169   0.00000  -0.00552  -0.00553   2.08062
   A23        2.10674   0.00302   0.00000   0.00906   0.00908   2.11581
   A24        2.09030  -0.00133   0.00000  -0.00354  -0.00355   2.08675
   A25        2.08615  -0.00169   0.00000  -0.00552  -0.00553   2.08063
    D1       -3.14105  -0.00003   0.00000  -0.00060  -0.00055   3.14158
    D2       -0.00024   0.00002   0.00000   0.00060   0.00058   0.00034
    D3       -3.14151   0.00000   0.00000   0.00001  -0.00001  -3.14151
    D4        0.00034  -0.00002   0.00000  -0.00056  -0.00054  -0.00020
    D5       -0.00010   0.00000   0.00000   0.00008   0.00008  -0.00002
    D6        3.14146   0.00000   0.00000   0.00012   0.00012   3.14158
    D7       -3.14139  -0.00000   0.00000   0.00001   0.00001  -3.14138
    D8        0.00017   0.00000   0.00000   0.00005   0.00005   0.00022
    D9        0.00009  -0.00000   0.00000  -0.00008  -0.00008   0.00001
   D10       -3.14153  -0.00000   0.00000  -0.00004  -0.00004  -3.14157
   D11        3.14132  -0.00000   0.00000  -0.00001  -0.00001   3.14131
   D12       -0.00030   0.00000   0.00000   0.00003   0.00003  -0.00027
   D13        0.00003  -0.00001   0.00000  -0.00038  -0.00038  -0.00035
   D14        3.14085   0.00002   0.00000   0.00075   0.00078  -3.14156
   D15       -3.14123  -0.00002   0.00000  -0.00044  -0.00045   3.14150
   D16       -0.00042   0.00002   0.00000   0.00068   0.00071   0.00029
   D17        0.00009  -0.00000   0.00000  -0.00005  -0.00005   0.00004
   D18       -3.14153  -0.00000   0.00000  -0.00002  -0.00002  -3.14155
   D19       -3.14147  -0.00000   0.00000  -0.00010  -0.00010  -3.14157
   D20        0.00010  -0.00000   0.00000  -0.00007  -0.00008   0.00002
   D21       -0.00031   0.00001   0.00000   0.00028   0.00028  -0.00003
   D22        3.14154  -0.00001   0.00000  -0.00027  -0.00028   3.14126
   D23        3.14125   0.00001   0.00000   0.00032   0.00033   3.14158
   D24       -0.00008  -0.00001   0.00000  -0.00023  -0.00024  -0.00032
   D25       -0.00009   0.00000   0.00000   0.00006   0.00006  -0.00002
   D26       -3.14158   0.00000   0.00000   0.00000   0.00000  -3.14157
   D27        3.14153   0.00000   0.00000   0.00002   0.00002   3.14155
   D28        0.00005  -0.00000   0.00000  -0.00004  -0.00004   0.00001
   D29       -0.00008   0.00000   0.00000   0.00003   0.00003  -0.00005
   D30        3.14144   0.00000   0.00000   0.00008   0.00007   3.14152
   D31        3.14154   0.00000   0.00000   0.00001   0.00001   3.14154
   D32       -0.00013   0.00000   0.00000   0.00005   0.00005  -0.00007
   D33        0.00009  -0.00000   0.00000  -0.00004  -0.00004   0.00005
   D34       -3.14144  -0.00000   0.00000  -0.00008  -0.00008  -3.14152
   D35        3.14157   0.00000   0.00000   0.00002   0.00002  -3.14159
   D36        0.00005  -0.00000   0.00000  -0.00002  -0.00003   0.00003
         Item               Value     Threshold  Converged?
 Maximum Force            0.046311     0.000450     NO 
 RMS     Force            0.010715     0.000300     NO 
 Maximum Displacement     0.148133     0.001800     NO 
 RMS     Displacement     0.040275     0.001200     NO 
 Predicted change in Energy=-9.842302D-03
 GradGradGradGradGradGradGradGradGradGradGradGradGradGradGradGradGradGrad

                          Input orientation:                          
 ---------------------------------------------------------------------
 Center     Atomic      Atomic             Coordinates (Angstroms)
 Number     Number       Type             X           Y           Z
 ---------------------------------------------------------------------
      1          8           0       -2.068707   -0.000018   -0.000084
      2          8           0       -1.726489    2.220865    0.000041
      3          8           0       -1.726460   -2.220871   -0.000164
      4          6           0        0.147891    0.690091   -0.000107
      5          6           0        0.147882   -0.690075    0.000046
      6          6           0        1.321517    1.425727   -0.000131
      7          6           0        1.321488   -1.425734    0.000160
      8          6           0       -1.271757    1.121997    0.000106
      9          6           0       -1.271810   -1.121944    0.000038
     10          6           0        2.515274    0.702011   -0.000007
     11          6           0        2.515252   -0.702014    0.000164
     12          1           0        1.308873    2.513456   -0.000229
     13          1           0        1.308829   -2.513455    0.000244
     14          1           0        3.464976    1.233000   -0.000001
     15          1           0        3.464939   -1.233036    0.000324
 ---------------------------------------------------------------------
                    Distance matrix (angstroms):
                    1          2          3          4          5
     1  O    0.000000
     2  O    2.247094   0.000000
     3  O    2.247070   4.441736   0.000000
     4  C    2.321542   2.420035   3.462209   0.000000
     5  C    2.321518   3.462201   2.420019   1.380166   0.000000
     6  C    3.677821   3.150014   4.752667   1.385120   2.419512
     7  C    3.677783   4.752667   3.149957   2.419514   1.385116
     8  C    1.376243   1.189241   3.373651   1.483895   2.301951
     9  C    1.376141   3.373589   1.189264   2.301961   1.483926
    10  C    4.637426   4.505493   5.151266   2.367412   2.746352
    11  C    4.637400   5.151270   4.505446   2.746334   2.367400
    12  H    4.210178   3.049432   5.623798   2.161606   3.407420
    13  H    4.210121   5.623784   3.049358   3.407416   2.161600
    14  H    5.669390   5.284617   6.235402   3.361220   3.834231
    15  H    5.669354   6.235411   5.284547   3.834217   3.361201
                    6          7          8          9         10
     6  C    0.000000
     7  C    2.851461   0.000000
     8  C    2.611000   3.635361   0.000000
     9  C    3.635378   2.611031   2.243940   0.000000
    10  C    1.396001   2.439759   3.810248   4.203429   0.000000
    11  C    2.439730   1.396010   4.203385   3.810273   1.404025
    12  H    1.087803   3.939211   2.931862   4.458257   2.176404
    13  H    3.939203   1.087795   4.458243   2.931894   3.434346
    14  H    2.152105   3.415174   4.738033   5.289887   1.088064
    15  H    3.415154   2.152096   5.289845   4.738052   2.155521
                   11         12         13         14         15
    11  C    0.000000
    12  H    3.434326   0.000000
    13  H    2.176413   5.026912   0.000000
    14  H    2.155518   2.507657   4.322603   0.000000
    15  H    1.088067   4.322595   2.507645   2.466036   0.000000
 Stoichiometry    C8H4O3
 Framework group  C1[X(C8H4O3)]
 Deg. of freedom    39
 Full point group                 C1      NOp   1
 Largest Abelian subgroup         C1      NOp   1
 Largest concise Abelian subgroup C1      NOp   1
                         Standard orientation:                         
 ---------------------------------------------------------------------
 Center     Atomic      Atomic             Coordinates (Angstroms)
 Number     Number       Type             X           Y           Z
 ---------------------------------------------------------------------
      1          8           0        2.041454    0.000016   -0.000088
      2          8           0        1.699232   -2.220866    0.000037
      3          8           0        1.699211    2.220869   -0.000168
      4          6           0       -0.175145   -0.690089   -0.000110
      5          6           0       -0.175133    0.690077    0.000042
      6          6           0       -1.348773   -1.425723   -0.000135
      7          6           0       -1.348738    1.425739    0.000156
      8          6           0        1.244502   -1.121997    0.000102
      9          6           0        1.244559    1.121943    0.000034
     10          6           0       -2.542528   -0.702005   -0.000011
     11          6           0       -2.542503    0.702021    0.000160
     12          1           0       -1.336131   -2.513452   -0.000233
     13          1           0       -1.336077    2.513459    0.000240
     14          1           0       -3.492231   -1.232992   -0.000005
     15          1           0       -3.492189    1.233044    0.000320
 ---------------------------------------------------------------------
 Rotational constants (GHZ):           1.8321873           1.1938962           0.7228622
 Standard basis: 6-311++G(d,p) (5D, 7F)
 There are   281 symmetry adapted cartesian basis functions of A   symmetry.
 There are   270 symmetry adapted basis functions of A   symmetry.
   270 basis functions,   432 primitive gaussians,   281 cartesian basis functions
    38 alpha electrons       38 beta electrons
       nuclear repulsion energy       559.7826928677 Hartrees.
 NAtoms=   15 NActive=   15 NUniq=   15 SFac= 1.00D+00 NAtFMM=   60 NAOKFM=F Big=F
 Integral buffers will be    131072 words long.
 Raffenetti 2 integral format.
 Two-electron integral symmetry is turned on.
 R6APFD:  NTU= -4 IXU= 1 FactS= 1.050
 Nuclear repulsion after empirical dispersion term =      559.7733614688 Hartrees.
 One-electron integrals computed using PRISM.
 NBasis=   270 RedAO= T EigKep=  1.32D-06  NBF=   270
 NBsUse=   269 1.00D-06 EigRej=  4.74D-07 NBFU=   269
 Initial guess from the checkpoint file:  "PHAC0140.chk"
 B after Tr=     0.000000    0.000000   -0.000000
         Rot=    1.000000   -0.000006   -0.000015    0.000005 Ang=  -0.00 deg.
 ExpMin= 3.60D-02 ExpMax= 8.59D+03 ExpMxC= 1.30D+03 IAcc=3 IRadAn=         5 AccDes= 0.00D+00
 Harris functional with IExCor= 1009 and IRadAn=       5 diagonalized for initial guess.
 HarFok:  IExCor= 1009 AccDes= 0.00D+00 IRadAn=         5 IDoV= 1 UseB2=F ITyADJ=14
 ICtDFT=  3500011 ScaDFX=  1.000000  1.000000  1.000000  1.000000
 FoFCou: FMM=F IPFlag=           0 FMFlag=      100000 FMFlg1=           0
         NFxFlg=           0 DoJE=T BraDBF=F KetDBF=T FulRan=T
         wScrn=  0.000000 ICntrl=       500 IOpCl=  0 I1Cent=   200000004 NGrid=           0
         NMat0=    1 NMatS0=      1 NMatT0=    0 NMatD0=    1 NMtDS0=    0 NMtDT0=    0
 Petite list used in FoFCou.
 Requested convergence on RMS density matrix=1.00D-08 within  32 cycles.
 Requested convergence on MAX density matrix=1.00D-06.
 Requested convergence on             energy=1.00D-06.
 No special actions if energy rises.
 SCF Done:  E(RM08HX) =  -532.919513611     A.U. after   13 cycles
            NFock= 13  Conv=0.85D-08     -V/T= 2.0038
 QCSCF skips out because SCF is already converged.
 R6APFD:  NTU= -4 IXU= 1 FactS= 1.050
 Calling FoFJK, ICntrl=      2127 FMM=F ISym2X=0 I1Cent= 0 IOpClX= 0 NMat=1 NMatS=1 NMatT=0.
 ***** Axes restored to original set *****
 -------------------------------------------------------------------
 Center     Atomic                   Forces (Hartrees/Bohr)
 Number     Number              X              Y              Z
 -------------------------------------------------------------------
      1        8           0.005116911    0.000028676    0.000029483
      2        8           0.002040149   -0.003337342    0.000018876
      3        8           0.002039638    0.003357627    0.000015228
      4        6           0.000565277   -0.001898501    0.000027275
      5        6           0.000547632    0.001899043    0.000009412
      6        6           0.001553812    0.000722946    0.000000267
      7        6           0.001558523   -0.000707625   -0.000003160
      8        6          -0.004758348    0.018604833   -0.000059395
      9        6          -0.004724941   -0.018656293   -0.000037737
     10        6          -0.001590782   -0.001309272    0.000000186
     11        6          -0.001588408    0.001298637   -0.000000663
     12        1          -0.000528181   -0.000072773    0.000000890
     13        1          -0.000528046    0.000067925    0.000002081
     14        1           0.000148386   -0.000013486   -0.000000525
     15        1           0.000148377    0.000015605   -0.000002218
 -------------------------------------------------------------------
 Cartesian Forces:  Max     0.018656293 RMS     0.004265760

 GradGradGradGradGradGradGradGradGradGradGradGradGradGradGradGradGradGrad
 Berny optimization.
 Using GEDIIS/GDIIS optimizer.
 FormGI is forming the generalized inverse of G from B-inverse, IUseBI=4.
 Internal  Forces:  Max     0.008124521 RMS     0.002269553
 Search for a local minimum.
 Step number   2 out of a maximum of   87
 All quantities printed in internal units (Hartrees-Bohrs-Radians)
 Mixed Optimization -- RFO/linear search
 Update second derivatives using D2CorX and points    1    2
 DE= -8.73D-03 DEPred=-9.84D-03 R= 8.87D-01
 TightC=F SS=  1.41D+00  RLast= 2.28D-01 DXNew= 5.0454D-01 6.8465D-01
 Trust test= 8.87D-01 RLast= 2.28D-01 DXMaxT set to 5.05D-01
 ITU=  1  0
 Use linear search instead of GDIIS.
     Eigenvalues ---    0.01634   0.01660   0.01832   0.02024   0.02038
     Eigenvalues ---    0.02069   0.02072   0.02104   0.02179   0.02231
     Eigenvalues ---    0.02241   0.02257   0.15950   0.16000   0.16000
     Eigenvalues ---    0.16000   0.22000   0.22541   0.24061   0.24541
     Eigenvalues ---    0.25000   0.25000   0.32084   0.35188   0.35191
     Eigenvalues ---    0.35531   0.35559   0.36122   0.37431   0.40970
     Eigenvalues ---    0.42876   0.45136   0.46144   0.47868   0.48279
     Eigenvalues ---    0.49881   0.50357   0.93476   0.98221
 RFO step:  Lambda=-1.00278978D-03 EMin= 1.63382356D-02
 Quartic linear search produced a step of -0.06804.
 Iteration  1 RMS(Cart)=  0.00675158 RMS(Int)=  0.00005002
 Iteration  2 RMS(Cart)=  0.00005119 RMS(Int)=  0.00001186
 Iteration  3 RMS(Cart)=  0.00000000 RMS(Int)=  0.00001186
 Variable       Old X    -DE/DX   Delta X   Delta X   Delta X     New X
                                 (Linear)    (Quad)   (Total)
    R1        2.60072   0.00616  -0.00096   0.01324   0.01230   2.61302
    R2        2.60053   0.00619  -0.00097   0.01331   0.01236   2.61289
    R3        2.24734  -0.00386   0.00314  -0.00951  -0.00636   2.24098
    R4        2.24738  -0.00388   0.00315  -0.00953  -0.00638   2.24100
    R5        2.60814   0.00452  -0.00118   0.01062   0.00940   2.61754
    R6        2.61750  -0.00007  -0.00053   0.00110   0.00056   2.61806
    R7        2.80415   0.00186  -0.00490   0.01362   0.00872   2.81287
    R8        2.61749  -0.00007  -0.00053   0.00109   0.00056   2.61805
    R9        2.80421   0.00185  -0.00489   0.01359   0.00869   2.81290
   R10        2.63806  -0.00117   0.00018  -0.00293  -0.00275   2.63531
   R11        2.05565  -0.00007  -0.00050   0.00078   0.00028   2.05593
   R12        2.63808  -0.00117   0.00018  -0.00296  -0.00277   2.63531
   R13        2.05563  -0.00006  -0.00051   0.00082   0.00030   2.05594
   R14        2.65322  -0.00120   0.00051  -0.00396  -0.00344   2.64978
   R15        2.05614   0.00012  -0.00017   0.00065   0.00048   2.05662
   R16        2.05615   0.00012  -0.00017   0.00064   0.00047   2.05662
    A1        1.90640   0.00812   0.00474   0.02253   0.02732   1.93372
    A2        2.13070  -0.00062  -0.00008  -0.00073  -0.00081   2.12989
    A3        1.86613   0.00311   0.00180   0.00689   0.00866   1.87478
    A4        2.28636  -0.00249  -0.00172  -0.00616  -0.00785   2.27851
    A5        2.13071  -0.00063  -0.00008  -0.00075  -0.00082   2.12989
    A6        1.86611   0.00311   0.00180   0.00691   0.00867   1.87478
    A7        2.28637  -0.00249  -0.00172  -0.00616  -0.00785   2.27852
    A8        2.03669  -0.00028   0.00070  -0.00272  -0.00202   2.03467
    A9        2.11907  -0.00040   0.00054  -0.00357  -0.00302   2.11605
   A10        2.12742   0.00069  -0.00125   0.00629   0.00504   2.13247
   A11        2.03667  -0.00028   0.00070  -0.00269  -0.00200   2.03467
   A12        2.11908  -0.00040   0.00055  -0.00359  -0.00303   2.11604
   A13        2.12744   0.00068  -0.00125   0.00627   0.00503   2.13247
   A14        2.13164   0.00427   0.00644   0.00321   0.00964   2.14128
   A15        1.89306  -0.00717  -0.00417  -0.01816  -0.02232   1.87074
   A16        2.25849   0.00290  -0.00227   0.01495   0.01268   2.27117
   A17        2.13171   0.00426   0.00644   0.00317   0.00961   2.14132
   A18        1.89309  -0.00718  -0.00417  -0.01817  -0.02233   1.87076
   A19        2.25838   0.00291  -0.00227   0.01500   0.01272   2.27110
   A20        2.11578   0.00091  -0.00062   0.00345   0.00283   2.11862
   A21        2.08678  -0.00037   0.00024  -0.00109  -0.00085   2.08593
   A22        2.08062  -0.00054   0.00038  -0.00236  -0.00198   2.07864
   A23        2.11581   0.00090  -0.00062   0.00343   0.00281   2.11862
   A24        2.08675  -0.00036   0.00024  -0.00107  -0.00083   2.08592
   A25        2.08063  -0.00054   0.00038  -0.00236  -0.00198   2.07864
    D1        3.14158   0.00001   0.00004   0.00025   0.00027  -3.14133
    D2        0.00034  -0.00002  -0.00004  -0.00064  -0.00068  -0.00034
    D3       -3.14151  -0.00000   0.00000  -0.00018  -0.00017   3.14150
    D4       -0.00020   0.00001   0.00004   0.00053   0.00057   0.00037
    D5       -0.00002  -0.00000  -0.00001  -0.00002  -0.00002  -0.00004
    D6        3.14158  -0.00000  -0.00001  -0.00006  -0.00007   3.14151
    D7       -3.14138  -0.00000  -0.00000  -0.00013  -0.00013  -3.14151
    D8        0.00022  -0.00000  -0.00000  -0.00017  -0.00018   0.00004
    D9        0.00001   0.00000   0.00001   0.00005   0.00006   0.00007
   D10       -3.14157  -0.00000   0.00000  -0.00001  -0.00001  -3.14158
   D11        3.14131   0.00000   0.00000   0.00019   0.00019   3.14150
   D12       -0.00027   0.00000  -0.00000   0.00013   0.00012  -0.00015
   D13       -0.00035   0.00001   0.00003   0.00050   0.00053   0.00017
   D14       -3.14156  -0.00001  -0.00005  -0.00046  -0.00052   3.14110
   D15        3.14150   0.00001   0.00003   0.00038   0.00041  -3.14128
   D16        0.00029  -0.00001  -0.00005  -0.00059  -0.00064  -0.00035
   D17        0.00004  -0.00000   0.00000  -0.00005  -0.00004  -0.00000
   D18       -3.14155  -0.00000   0.00000  -0.00004  -0.00004   3.14159
   D19       -3.14157   0.00000   0.00001   0.00001   0.00002  -3.14155
   D20        0.00002   0.00000   0.00001   0.00001   0.00002   0.00004
   D21       -0.00003  -0.00001  -0.00002  -0.00021  -0.00022  -0.00025
   D22        3.14126   0.00001   0.00002   0.00057   0.00059  -3.14133
   D23        3.14158  -0.00001  -0.00002  -0.00026  -0.00028   3.14130
   D24       -0.00032   0.00001   0.00002   0.00052   0.00054   0.00022
   D25       -0.00002  -0.00000  -0.00000  -0.00002  -0.00002  -0.00005
   D26       -3.14157  -0.00000  -0.00000  -0.00006  -0.00006   3.14155
   D27        3.14155   0.00000  -0.00000   0.00005   0.00005  -3.14158
   D28        0.00001   0.00000   0.00000   0.00000   0.00001   0.00001
   D29       -0.00005   0.00000  -0.00000   0.00008   0.00008   0.00002
   D30        3.14152   0.00000  -0.00001   0.00008   0.00008  -3.14159
   D31        3.14154   0.00000  -0.00000   0.00008   0.00008  -3.14157
   D32       -0.00007   0.00000  -0.00000   0.00008   0.00008   0.00000
   D33        0.00005  -0.00000   0.00000  -0.00005  -0.00005   0.00000
   D34       -3.14152  -0.00000   0.00001  -0.00005  -0.00005  -3.14157
   D35       -3.14159  -0.00000  -0.00000  -0.00000  -0.00001   3.14159
   D36        0.00003  -0.00000   0.00000  -0.00001  -0.00001   0.00002
         Item               Value     Threshold  Converged?
 Maximum Force            0.008125     0.000450     NO 
 RMS     Force            0.002270     0.000300     NO 
 Maximum Displacement     0.030536     0.001800     NO 
 RMS     Displacement     0.006754     0.001200     NO 
 Predicted change in Energy=-5.514222D-04
 GradGradGradGradGradGradGradGradGradGradGradGradGradGradGradGradGradGrad

                          Input orientation:                          
 ---------------------------------------------------------------------
 Center     Atomic      Atomic             Coordinates (Angstroms)
 Number     Number       Type             X           Y           Z
 ---------------------------------------------------------------------
      1          8           0       -2.057196   -0.000011    0.000068
      2          8           0       -1.729796    2.232067    0.000114
      3          8           0       -1.729780   -2.232062    0.000173
      4          6           0        0.148307    0.692578   -0.000184
      5          6           0        0.148296   -0.692564   -0.000074
      6          6           0        1.322779    1.427425   -0.000076
      7          6           0        1.322754   -1.427421    0.000096
      8          6           0       -1.271951    1.138141   -0.000239
      9          6           0       -1.271986   -1.138103   -0.000121
     10          6           0        2.513241    0.701095    0.000064
     11          6           0        2.513226   -0.701108    0.000150
     12          1           0        1.307723    2.515271   -0.000152
     13          1           0        1.307683   -2.515271    0.000184
     14          1           0        3.464212    1.230328    0.000114
     15          1           0        3.464187   -1.230364    0.000283
 ---------------------------------------------------------------------
                    Distance matrix (angstroms):
                    1          2          3          4          5
     1  O    0.000000
     2  O    2.255962   0.000000
     3  O    2.255938   4.464129   0.000000
     4  C    2.311692   2.428435   3.475734   0.000000
     5  C    2.311672   3.475729   2.428420   1.385142   0.000000
     6  C    3.669033   3.156843   4.765497   1.385419   2.423584
     7  C    3.669000   4.765492   3.156804   2.423576   1.385412
     8  C    1.382751   1.185874   3.401158   1.488508   2.317020
     9  C    1.382681   3.401122   1.185885   2.317029   1.488525
    10  C    4.623899   4.510791   5.158162   2.364950   2.745041
    11  C    4.623883   5.158173   4.510756   2.745033   2.364946
    12  H    4.201110   3.050692   5.635920   2.160198   3.410934
    13  H    4.201064   5.635911   3.050637   3.410930   2.160194
    14  H    5.656826   5.289726   6.242251   3.359227   3.833120
    15  H    5.656804   6.242265   5.289677   3.833114   3.359220
                    6          7          8          9         10
     6  C    0.000000
     7  C    2.854845   0.000000
     8  C    2.610806   3.648917   0.000000
     9  C    3.648936   2.610820   2.276243   0.000000
    10  C    1.394545   2.438819   3.810339   4.208395   0.000000
    11  C    2.438815   1.394544   4.208373   3.810354   1.402203
    12  H    1.087950   3.942720   2.924244   4.472364   2.178189
    13  H    3.942724   1.087954   4.472351   2.924258   3.434877
    14  H    2.150485   3.413132   4.737060   5.295379   1.088317
    15  H    3.413131   2.150480   5.295357   4.737071   2.152865
                   11         12         13         14         15
    11  C    0.000000
    12  H    3.434870   0.000000
    13  H    2.178192   5.030541   0.000000
    14  H    2.152863   2.510284   4.322051   0.000000
    15  H    1.088318   4.322049   2.510278   2.460691   0.000000
 Stoichiometry    C8H4O3
 Framework group  C1[X(C8H4O3)]
 Deg. of freedom    39
 Full point group                 C1      NOp   1
 Largest Abelian subgroup         C1      NOp   1
 Largest concise Abelian subgroup C1      NOp   1
                         Standard orientation:                         
 ---------------------------------------------------------------------
 Center     Atomic      Atomic             Coordinates (Angstroms)
 Number     Number       Type             X           Y           Z
 ---------------------------------------------------------------------
      1          8           0        2.030323    0.000014    0.000055
      2          8           0        1.702924   -2.232064    0.000101
      3          8           0        1.702905    2.232066    0.000160
      4          6           0       -0.175179   -0.692576   -0.000196
      5          6           0       -0.175170    0.692566   -0.000087
      6          6           0       -1.349651   -1.427423   -0.000089
      7          6           0       -1.349628    1.427422    0.000084
      8          6           0        1.245078   -1.138138   -0.000252
      9          6           0        1.245112    1.138106   -0.000134
     10          6           0       -2.540114   -0.701094    0.000052
     11          6           0       -2.540100    0.701109    0.000137
     12          1           0       -1.334595   -2.515269   -0.000165
     13          1           0       -1.334557    2.515272    0.000171
     14          1           0       -3.491085   -1.230327    0.000101
     15          1           0       -3.491061    1.230364    0.000270
 ---------------------------------------------------------------------
 Rotational constants (GHZ):           1.8147922           1.1954470           0.7207028
 Standard basis: 6-311++G(d,p) (5D, 7F)
 There are   281 symmetry adapted cartesian basis functions of A   symmetry.
 There are   270 symmetry adapted basis functions of A   symmetry.
   270 basis functions,   432 primitive gaussians,   281 cartesian basis functions
    38 alpha electrons       38 beta electrons
       nuclear repulsion energy       559.0218669753 Hartrees.
 NAtoms=   15 NActive=   15 NUniq=   15 SFac= 1.00D+00 NAtFMM=   60 NAOKFM=F Big=F
 Integral buffers will be    131072 words long.
 Raffenetti 2 integral format.
 Two-electron integral symmetry is turned on.
 R6APFD:  NTU= -4 IXU= 1 FactS= 1.050
 Nuclear repulsion after empirical dispersion term =      559.0124787464 Hartrees.
 One-electron integrals computed using PRISM.
 NBasis=   270 RedAO= T EigKep=  1.37D-06  NBF=   270
 NBsUse=   269 1.00D-06 EigRej=  4.84D-07 NBFU=   269
 Initial guess from the checkpoint file:  "PHAC0140.chk"
 B after Tr=    -0.000000    0.000000   -0.000000
         Rot=    1.000000   -0.000013    0.000008   -0.000001 Ang=  -0.00 deg.
 ExpMin= 3.60D-02 ExpMax= 8.59D+03 ExpMxC= 1.30D+03 IAcc=3 IRadAn=         5 AccDes= 0.00D+00
 Harris functional with IExCor= 1009 and IRadAn=       5 diagonalized for initial guess.
 HarFok:  IExCor= 1009 AccDes= 0.00D+00 IRadAn=         5 IDoV= 1 UseB2=F ITyADJ=14
 ICtDFT=  3500011 ScaDFX=  1.000000  1.000000  1.000000  1.000000
 FoFCou: FMM=F IPFlag=           0 FMFlag=      100000 FMFlg1=           0
         NFxFlg=           0 DoJE=T BraDBF=F KetDBF=T FulRan=T
         wScrn=  0.000000 ICntrl=       500 IOpCl=  0 I1Cent=   200000004 NGrid=           0
         NMat0=    1 NMatS0=      1 NMatT0=    0 NMatD0=    1 NMtDS0=    0 NMtDT0=    0
 Petite list used in FoFCou.
 Requested convergence on RMS density matrix=1.00D-08 within  32 cycles.
 Requested convergence on MAX density matrix=1.00D-06.
 Requested convergence on             energy=1.00D-06.
 No special actions if energy rises.
 SCF Done:  E(RM08HX) =  -532.920096997     A.U. after   12 cycles
            NFock= 12  Conv=0.66D-08     -V/T= 2.0039
 QCSCF skips out because SCF is already converged.
 R6APFD:  NTU= -4 IXU= 1 FactS= 1.050
 Calling FoFJK, ICntrl=      2127 FMM=F ISym2X=0 I1Cent= 0 IOpClX= 0 NMat=1 NMatS=1 NMatT=0.
 ***** Axes restored to original set *****
 -------------------------------------------------------------------
 Center     Atomic                   Forces (Hartrees/Bohr)
 Number     Number              X              Y              Z
 -------------------------------------------------------------------
      1        8          -0.001315209    0.000019519   -0.000044711
      2        8           0.000491805   -0.001193135   -0.000031444
      3        8           0.000489622    0.001198811   -0.000022649
      4        6          -0.000292646   -0.002280105   -0.000018502
      5        6          -0.000300902    0.002283996   -0.000020469
      6        6          -0.000575828   -0.000158316   -0.000006652
      7        6          -0.000573658    0.000153000   -0.000001980
      8        6           0.000549027    0.003072781    0.000080124
      9        6           0.000570287   -0.003099437    0.000061311
     10        6           0.000533415   -0.000328375    0.000001161
     11        6           0.000535560    0.000327362    0.000002300
     12        1          -0.000148229   -0.000183274    0.000001101
     13        1          -0.000148268    0.000186135    0.000000006
     14        1           0.000092681   -0.000088776    0.000000830
     15        1           0.000092343    0.000089811   -0.000000428
 -------------------------------------------------------------------
 Cartesian Forces:  Max     0.003099437 RMS     0.000906698

 GradGradGradGradGradGradGradGradGradGradGradGradGradGradGradGradGradGrad
 Berny optimization.
 Using GEDIIS/GDIIS optimizer.
 FormGI is forming the generalized inverse of G from B-inverse, IUseBI=4.
 Internal  Forces:  Max     0.001772576 RMS     0.000444887
 Search for a local minimum.
 Step number   3 out of a maximum of   87
 All quantities printed in internal units (Hartrees-Bohrs-Radians)
 Mixed Optimization -- En-DIIS/RFO-DIIS
 Update second derivatives using D2CorX and points    1    2    3
 DE= -5.83D-04 DEPred=-5.51D-04 R= 1.06D+00
 TightC=F SS=  1.41D+00  RLast= 5.73D-02 DXNew= 8.4853D-01 1.7194D-01
 Trust test= 1.06D+00 RLast= 5.73D-02 DXMaxT set to 5.05D-01
 ITU=  1  1  0
 Use linear search instead of GDIIS.
     Eigenvalues ---    0.01632   0.01659   0.01837   0.02028   0.02039
     Eigenvalues ---    0.02069   0.02072   0.02105   0.02181   0.02230
     Eigenvalues ---    0.02241   0.02257   0.15791   0.16000   0.16000
     Eigenvalues ---    0.16006   0.22000   0.22614   0.23559   0.24538
     Eigenvalues ---    0.25000   0.25000   0.31036   0.35188   0.35191
     Eigenvalues ---    0.35530   0.35546   0.36189   0.37825   0.41561
     Eigenvalues ---    0.42890   0.43692   0.45996   0.47866   0.48249
     Eigenvalues ---    0.49945   0.51302   0.91832   0.98221
 RFO step:  Lambda=-3.29939986D-05 EMin= 1.63217925D-02
 Quartic linear search produced a step of  0.07280.
 Iteration  1 RMS(Cart)=  0.00147496 RMS(Int)=  0.00000167
 Iteration  2 RMS(Cart)=  0.00000183 RMS(Int)=  0.00000066
 Iteration  3 RMS(Cart)=  0.00000000 RMS(Int)=  0.00000066
 Variable       Old X    -DE/DX   Delta X   Delta X   Delta X     New X
                                 (Linear)    (Quad)   (Total)
    R1        2.61302   0.00137   0.00090   0.00281   0.00371   2.61673
    R2        2.61289   0.00140   0.00090   0.00286   0.00376   2.61665
    R3        2.24098  -0.00129  -0.00046  -0.00143  -0.00189   2.23908
    R4        2.24100  -0.00129  -0.00046  -0.00143  -0.00190   2.23910
    R5        2.61754  -0.00177   0.00068  -0.00475  -0.00407   2.61347
    R6        2.61806  -0.00016   0.00004  -0.00047  -0.00043   2.61763
    R7        2.81287  -0.00017   0.00063  -0.00057   0.00006   2.81294
    R8        2.61805  -0.00016   0.00004  -0.00046  -0.00042   2.61763
    R9        2.81290  -0.00018   0.00063  -0.00058   0.00005   2.81296
   R10        2.63531   0.00044  -0.00020   0.00127   0.00107   2.63637
   R11        2.05593  -0.00018   0.00002  -0.00051  -0.00049   2.05544
   R12        2.63531   0.00044  -0.00020   0.00127   0.00107   2.63637
   R13        2.05594  -0.00018   0.00002  -0.00052  -0.00050   2.05544
   R14        2.64978  -0.00061  -0.00025  -0.00108  -0.00133   2.64845
   R15        2.05662   0.00004   0.00003   0.00011   0.00015   2.05677
   R16        2.05662   0.00004   0.00003   0.00011   0.00014   2.05677
    A1        1.93372  -0.00034   0.00199  -0.00149   0.00050   1.93422
    A2        2.12989  -0.00003  -0.00006  -0.00035  -0.00041   2.12948
    A3        1.87478   0.00068   0.00063   0.00141   0.00204   1.87682
    A4        2.27851  -0.00065  -0.00057  -0.00106  -0.00163   2.27688
    A5        2.12989  -0.00003  -0.00006  -0.00035  -0.00041   2.12948
    A6        1.87478   0.00068   0.00063   0.00141   0.00204   1.87682
    A7        2.27852  -0.00065  -0.00057  -0.00106  -0.00163   2.27689
    A8        2.03467   0.00045  -0.00015   0.00192   0.00177   2.03644
    A9        2.11605  -0.00038  -0.00022  -0.00192  -0.00214   2.11391
   A10        2.13247  -0.00007   0.00037   0.00000   0.00037   2.13284
   A11        2.03467   0.00045  -0.00015   0.00192   0.00177   2.03645
   A12        2.11604  -0.00038  -0.00022  -0.00192  -0.00214   2.11390
   A13        2.13247  -0.00007   0.00037   0.00000   0.00037   2.13284
   A14        2.14128   0.00025   0.00070  -0.00006   0.00064   2.14191
   A15        1.87074  -0.00051  -0.00162  -0.00066  -0.00228   1.86845
   A16        2.27117   0.00026   0.00092   0.00072   0.00164   2.27282
   A17        2.14132   0.00024   0.00070  -0.00008   0.00062   2.14194
   A18        1.87076  -0.00051  -0.00163  -0.00067  -0.00229   1.86847
   A19        2.27110   0.00027   0.00093   0.00074   0.00167   2.27277
   A20        2.11862  -0.00042   0.00021  -0.00156  -0.00136   2.11726
   A21        2.08593   0.00034  -0.00006   0.00161   0.00155   2.08748
   A22        2.07864   0.00009  -0.00014  -0.00005  -0.00019   2.07845
   A23        2.11862  -0.00043   0.00020  -0.00157  -0.00136   2.11726
   A24        2.08592   0.00034  -0.00006   0.00162   0.00156   2.08748
   A25        2.07864   0.00009  -0.00014  -0.00005  -0.00020   2.07845
    D1       -3.14133  -0.00001   0.00002  -0.00078  -0.00076   3.14110
    D2       -0.00034   0.00002  -0.00005   0.00134   0.00129   0.00095
    D3        3.14150   0.00001  -0.00001   0.00043   0.00042  -3.14127
    D4        0.00037  -0.00002   0.00004  -0.00131  -0.00126  -0.00090
    D5       -0.00004   0.00000  -0.00000   0.00006   0.00006   0.00001
    D6        3.14151   0.00000  -0.00001   0.00014   0.00014  -3.14154
    D7       -3.14151  -0.00000  -0.00001  -0.00003  -0.00004  -3.14155
    D8        0.00004   0.00000  -0.00001   0.00005   0.00004   0.00008
    D9        0.00007  -0.00000   0.00000  -0.00014  -0.00013  -0.00007
   D10       -3.14158  -0.00000  -0.00000  -0.00003  -0.00003   3.14158
   D11        3.14150  -0.00000   0.00001  -0.00002  -0.00001   3.14149
   D12       -0.00015   0.00000   0.00001   0.00009   0.00010  -0.00005
   D13        0.00017  -0.00001   0.00004  -0.00083  -0.00079  -0.00062
   D14        3.14110   0.00002  -0.00004   0.00150   0.00146  -3.14062
   D15       -3.14128  -0.00002   0.00003  -0.00093  -0.00090   3.14100
   D16       -0.00035   0.00002  -0.00005   0.00140   0.00135   0.00100
   D17       -0.00000   0.00000  -0.00000   0.00006   0.00005   0.00005
   D18        3.14159   0.00000  -0.00000   0.00003   0.00002  -3.14157
   D19       -3.14155  -0.00000   0.00000  -0.00005  -0.00005   3.14159
   D20        0.00004  -0.00000   0.00000  -0.00008  -0.00008  -0.00004
   D21       -0.00025   0.00001  -0.00002   0.00074   0.00073   0.00048
   D22       -3.14133  -0.00002   0.00004  -0.00117  -0.00113   3.14072
   D23        3.14130   0.00001  -0.00002   0.00084   0.00082  -3.14106
   D24        0.00022  -0.00002   0.00004  -0.00108  -0.00104  -0.00082
   D25       -0.00005   0.00000  -0.00000   0.00010   0.00010   0.00006
   D26        3.14155   0.00000  -0.00000   0.00009   0.00009  -3.14155
   D27       -3.14158  -0.00000   0.00000  -0.00001  -0.00001  -3.14159
   D28        0.00001  -0.00000   0.00000  -0.00002  -0.00002  -0.00001
   D29        0.00002  -0.00000   0.00001  -0.00009  -0.00009  -0.00006
   D30       -3.14159  -0.00000   0.00001  -0.00003  -0.00003   3.14156
   D31       -3.14157  -0.00000   0.00001  -0.00006  -0.00005   3.14156
   D32        0.00000   0.00000   0.00001  -0.00000   0.00000   0.00000
   D33        0.00000   0.00000  -0.00000   0.00001   0.00001   0.00001
   D34       -3.14157  -0.00000  -0.00000  -0.00005  -0.00005   3.14157
   D35        3.14159   0.00000  -0.00000   0.00002   0.00002  -3.14157
   D36        0.00002  -0.00000  -0.00000  -0.00003  -0.00003  -0.00001
         Item               Value     Threshold  Converged?
 Maximum Force            0.001773     0.000450     NO 
 RMS     Force            0.000445     0.000300     NO 
 Maximum Displacement     0.004420     0.001800     NO 
 RMS     Displacement     0.001475     0.001200     NO 
 Predicted change in Energy=-1.910774D-05
 GradGradGradGradGradGradGradGradGradGradGradGradGradGradGradGradGradGrad

                          Input orientation:                          
 ---------------------------------------------------------------------
 Center     Atomic      Atomic             Coordinates (Angstroms)
 Number     Number       Type             X           Y           Z
 ---------------------------------------------------------------------
      1          8           0       -2.057718   -0.000001   -0.000293
      2          8           0       -1.728672    2.233142   -0.000522
      3          8           0       -1.728672   -2.233131   -0.000337
      4          6           0        0.147739    0.691498    0.000181
      5          6           0        0.147730   -0.691489    0.000258
      6          6           0        1.322318    1.425743    0.000008
      7          6           0        1.322299   -1.425745    0.000182
      8          6           0       -1.271641    1.139961    0.000355
      9          6           0       -1.271668   -1.139930    0.000363
     10          6           0        2.514250    0.700741   -0.000003
     11          6           0        2.514240   -0.700758    0.000087
     12          1           0        1.305384    2.513301   -0.000065
     13          1           0        1.305351   -2.513303    0.000227
     14          1           0        3.465388    1.229832   -0.000095
     15          1           0        3.465372   -1.229861    0.000052
 ---------------------------------------------------------------------
                    Distance matrix (angstroms):
                    1          2          3          4          5
     1  O    0.000000
     2  O    2.257254   0.000000
     3  O    2.257242   4.466272   0.000000
     4  C    2.311323   2.428494   3.474820   0.000000
     5  C    2.311310   3.474817   2.428485   1.382988   0.000000
     6  C    3.668432   3.156016   4.764021   1.385190   2.421225
     7  C    3.668414   4.764019   3.155994   2.421221   1.385188
     8  C    1.384713   1.184872   3.403913   1.488542   2.317072
     9  C    1.384671   3.403890   1.184880   2.317077   1.488552
    10  C    4.625357   4.511168   5.158487   2.366529   2.745673
    11  C    4.625350   5.158495   4.511150   2.745670   2.366529
    12  H    4.198469   3.046963   5.633303   2.158496   3.407469
    13  H    4.198442   5.633297   3.046931   3.407465   2.158493
    14  H    5.658374   5.290075   6.242625   3.361041   3.833841
    15  H    5.658364   6.242634   5.290051   3.833838   3.361041
                    6          7          8          9         10
     6  C    0.000000
     7  C    2.851488   0.000000
     8  C    2.609655   3.648475   0.000000
     9  C    3.648485   2.609666   2.279891   0.000000
    10  C    1.395109   2.437763   3.811284   4.209661   0.000000
    11  C    2.437762   1.395109   4.209649   3.811295   1.401499
    12  H    1.087690   3.939082   2.920123   4.470715   2.178699
    13  H    3.939083   1.087690   4.470707   2.920133   3.433878
    14  H    2.152006   3.412465   4.737882   5.296742   1.088394
    15  H    3.412464   2.152006   5.296730   4.737894   2.152175
                   11         12         13         14         15
    11  C    0.000000
    12  H    3.433876   0.000000
    13  H    2.178700   5.026604   0.000000
    14  H    2.152175   2.512551   4.321669   0.000000
    15  H    1.088394   4.321667   2.512552   2.459692   0.000000
 Stoichiometry    C8H4O3
 Framework group  C1[X(C8H4O3)]
 Deg. of freedom    39
 Full point group                 C1      NOp   1
 Largest Abelian subgroup         C1      NOp   1
 Largest concise Abelian subgroup C1      NOp   1
                         Standard orientation:                         
 ---------------------------------------------------------------------
 Center     Atomic      Atomic             Coordinates (Angstroms)
 Number     Number       Type             X           Y           Z
 ---------------------------------------------------------------------
      1          8           0        2.031042    0.000009   -0.000286
      2          8           0        1.702002   -2.233135   -0.000515
      3          8           0        1.701990    2.233137   -0.000331
      4          6           0       -0.174414   -0.691497    0.000188
      5          6           0       -0.174408    0.691491    0.000265
      6          6           0       -1.348991   -1.425744    0.000014
      7          6           0       -1.348979    1.425743    0.000189
      8          6           0        1.244968   -1.139955    0.000362
      9          6           0        1.244989    1.139936    0.000370
     10          6           0       -2.540924   -0.700745    0.000003
     11          6           0       -2.540918    0.700753    0.000094
     12          1           0       -1.332054   -2.513302   -0.000058
     13          1           0       -1.332033    2.513302    0.000233
     14          1           0       -3.492062   -1.229838   -0.000088
     15          1           0       -3.492052    1.229854    0.000059
 ---------------------------------------------------------------------
 Rotational constants (GHZ):           1.8143508           1.1954730           0.7206427
 Standard basis: 6-311++G(d,p) (5D, 7F)
 There are   281 symmetry adapted cartesian basis functions of A   symmetry.
 There are   270 symmetry adapted basis functions of A   symmetry.
   270 basis functions,   432 primitive gaussians,   281 cartesian basis functions
    38 alpha electrons       38 beta electrons
       nuclear repulsion energy       559.0220394588 Hartrees.
 NAtoms=   15 NActive=   15 NUniq=   15 SFac= 1.00D+00 NAtFMM=   60 NAOKFM=F Big=F
 Integral buffers will be    131072 words long.
 Raffenetti 2 integral format.
 Two-electron integral symmetry is turned on.
 R6APFD:  NTU= -4 IXU= 1 FactS= 1.050
 Nuclear repulsion after empirical dispersion term =      559.0126414250 Hartrees.
 One-electron integrals computed using PRISM.
 NBasis=   270 RedAO= T EigKep=  1.36D-06  NBF=   270
 NBsUse=   269 1.00D-06 EigRej=  4.82D-07 NBFU=   269
 Initial guess from the checkpoint file:  "PHAC0140.chk"
 B after Tr=    -0.000000   -0.000000   -0.000000
         Rot=    1.000000   -0.000004   -0.000027   -0.000000 Ang=  -0.00 deg.
 Requested convergence on RMS density matrix=1.00D-08 within  32 cycles.
 Requested convergence on MAX density matrix=1.00D-06.
 Requested convergence on             energy=1.00D-06.
 No special actions if energy rises.
 SCF Done:  E(RM08HX) =  -532.920118236     A.U. after   12 cycles
            NFock= 12  Conv=0.49D-08     -V/T= 2.0039
 QCSCF skips out because SCF is already converged.
 R6APFD:  NTU= -4 IXU= 1 FactS= 1.050
 Calling FoFJK, ICntrl=      2127 FMM=F ISym2X=0 I1Cent= 0 IOpClX= 0 NMat=1 NMatS=1 NMatT=0.
[...]
 ! D27   D(12,6,10,11)        -179.9996         -DE/DX =    0.0                 !
 ! D28   D(12,6,10,14)           0.0003         -DE/DX =    0.0                 !
 ! D29   D(5,7,11,10)            0.0            -DE/DX =    0.0                 !
 ! D30   D(5,7,11,15)          179.9997         -DE/DX =    0.0                 !
 ! D31   D(13,7,11,10)        -179.9994         -DE/DX =    0.0                 !
 ! D32   D(13,7,11,15)           0.0003         -DE/DX =    0.0                 !
 ! D33   D(6,10,11,7)           -0.0002         -DE/DX =    0.0                 !
 ! D34   D(6,10,11,15)        -179.9999         -DE/DX =    0.0                 !
 ! D35   D(14,10,11,7)         179.9999         -DE/DX =    0.0                 !
 ! D36   D(14,10,11,15)          0.0002         -DE/DX =    0.0                 !
 --------------------------------------------------------------------------------
 GradGradGradGradGradGradGradGradGradGradGradGradGradGradGradGradGradGrad


 ----------------------------------------------------------------------

 Electric dipole moment (input orientation):
 (Debye = 10**-18 statcoulomb cm , SI units = C m)
                  (au)            (Debye)         (10**-30 SI)
   Tot        0.235069D+01      0.597486D+01      0.199300D+02
   x          0.235069D+01      0.597486D+01      0.199300D+02
   y          0.356269D-04      0.905545D-04      0.302057D-03
   z          0.740389D-04      0.188188D-03      0.627728D-03

 Dipole polarizability, Alpha (input orientation).
 (esu units = cm**3 , SI units = C**2 m**2 J**-1)
 Alpha(0;0):
               (au)            (10**-24 esu)      (10**-40 SI)
   iso        0.937516D+02      0.138926D+02      0.154576D+02
   aniso      0.662684D+02      0.981996D+01      0.109262D+02
   xx         0.116545D+03      0.172702D+02      0.192157D+02
   yx        -0.114995D-03     -0.170404D-04     -0.189600D-04
   yy         0.115129D+03      0.170604D+02      0.189823D+02
   zx         0.202093D-02      0.299470D-03      0.333206D-03
   zy        -0.306505D-02     -0.454193D-03     -0.505358D-03
   zz         0.495803D+02      0.734704D+01      0.817468D+01

 ----------------------------------------------------------------------

 Dipole orientation:
     8         -0.00002888          0.00007027         -3.88948304
     8          0.00011845          4.22083413         -3.26525685
     8         -0.00016131         -4.22070442         -3.26540518
     6          0.00004490          1.30622959          0.27922562
     6         -0.00005395         -1.30622653          0.27917138
     6          0.00007679          2.69415829          2.49853738
     6         -0.00009060         -2.69424286          2.49842692
     6          0.00008960          2.15492129         -2.40203463
     6         -0.00013961         -2.15480445         -2.40213374
     6          0.00003327          1.32441642          4.75117183
     6         -0.00004607         -1.32459181          4.75111738
     1          0.00015066          4.74942067          2.46593490
     1         -0.00016928         -4.74950345          2.46573928
     1          0.00006417          2.32484514          6.54810402
     1         -0.00008146         -2.32509298          6.54800916

 Electric dipole moment (dipole orientation):
 (Debye = 10**-18 statcoulomb cm , SI units = C m)
                  (au)            (Debye)         (10**-30 SI)
   Tot        0.235069D+01      0.597486D+01      0.199300D+02
   x          0.000000D+00      0.000000D+00      0.000000D+00
   y          0.000000D+00      0.000000D+00      0.000000D+00
   z          0.235069D+01      0.597486D+01      0.199300D+02

 Dipole polarizability, Alpha (dipole orientation).
 (esu units = cm**3 , SI units = C**2 m**2 J**-1)
 Alpha(0;0):
               (au)            (10**-24 esu)      (10**-40 SI)
   iso        0.937516D+02      0.138926D+02      0.154576D+02
   aniso      0.662684D+02      0.981996D+01      0.109262D+02
   xx         0.495803D+02      0.734704D+01      0.817468D+01
   yx         0.207162D-02      0.306982D-03      0.341564D-03
   yy         0.115129D+03      0.170604D+02      0.189823D+02
   zx         0.882952D-04      0.130840D-04      0.145579D-04
   zy        -0.136548D-03     -0.202343D-04     -0.225136D-04
   zz         0.116545D+03      0.172702D+02      0.192157D+02

 ----------------------------------------------------------------------
 1\1\GINC-PITOMBA\Freq\RM08HX\6-311++G(d,p)\C8H4O3\VALTER\21-Sep-2025\0
 \\#N Geom=AllCheck Guess=TCheck SCRF=Check GenChk RM08HX/6-311++G(d,p)
  Freq\\PHAC0140\\0,1\O,-2.0582257866,0.0000059934,-0.0000495464\O,-1.7
 279333627,2.2335430418,-0.0001509539\O,-1.7279441586,-2.2335267796,0.0
 000647851\C,0.1477493586,0.6912291691,-0.0000295848\C,0.1477416061,-0.
 691223073,0.0000436794\C,1.322147435,1.4257072069,-0.0000205975\C,1.32
 21321954,-1.4257118839,0.0001111945\C,-1.2711192638,1.1403159717,-0.00
 01047336\C,-1.2711371511,-1.1402926736,0.0000511211\C,2.5142012323,0.7
 008890933,0.0000509627\C,2.5141936661,-0.7009056951,0.0001141898\H,1.3
 048784665,2.5133049607,-0.0000767182\H,1.3048511204,-2.513309213,0.000
 1687706\H,3.4650887761,1.2303075826,0.0000565374\H,3.4650758664,-1.230
 3337013,0.0001708937\\Version=ES64L-G16RevB.01\State=1-A\HF=-532.92011
 99\RMSD=3.001e-09\RMSF=4.304e-05\ZeroPoint=0.1039038\Thermal=0.11155\D
 ipole=2.3506893,0.0000356,0.000074\DipoleDeriv=-0.9680146,0.0000072,-0
 .0000194,-0.0000146,-1.6427423,0.0000737,-0.00002,0.0000992,-0.2321617
 ,-0.7813357,0.4074043,-0.0000358,0.407924,-1.2627693,0.0000642,-0.0000
 275,0.0000454,-0.3484632,-0.7813401,-0.4073934,0.0000119,-0.4079265,-1
 .2627603,0.0000419,0.0000038,0.0000184,-0.3484704,-0.3803565,0.1758754
 ,-0.000018,0.2452071,-0.1332594,0.0000152,-0.0000193,0.0000175,-0.0036
 451,-0.3803328,-0.1758578,-0.0000034,-0.2452074,-0.133242,-0.0000007,0
 .0000027,0.0000002,-0.0036419,-0.1250929,-0.0726877,0.0000035,0.063519
 2,0.1206341,-0.0000084,-0.0000064,-0.0000133,-0.0935336,-0.1251134,0.0
 726745,-0.0000045,-0.0635158,0.1206344,-0.0000132,0.0000064,-0.0000059
 ,-0.0935342,1.5960955,-0.1315595,0.0000432,-0.3127076,2.0816358,-0.000
 1039,0.0000512,-0.0000949,0.3877112,1.5960714,0.1315313,0.0000219,0.31
 27169,2.0816149,-0.000086,0.0000097,-0.0000859,0.3877069,0.1072141,0.0
 906153,0.0000037,0.0384323,-0.046416,-0.000001,0.0000068,0.0000004,-0.
 1125105,0.1072185,-0.0906092,0.0000114,-0.038428,-0.0463965,-0.0000034
 ,0.0000083,-0.0000051,-0.1125087,0.0859605,0.0138626,-0.0000027,-0.010
 1557,0.0104481,0.0000062,-0.0000049,0.0000096,0.1446316,0.0859613,-0.0
 138635,-0.0000011,0.0101555,0.0104497,0.000007,0.0000003,0.0000084,0.1
 446315,-0.0184681,-0.0491429,-0.0000031,-0.0496765,0.0510848,0.0000025
 ,-0.0000016,0.0000016,0.1418943,-0.0184672,0.0491436,-0.0000076,0.0496
 771,0.051084,0.0000059,-0.0000097,0.0000044,0.1418939\Polar=116.545230
 1,-0.000115,115.1294292,0.0020209,-0.003065,49.5802769\Quadrupole=1.24
 16884,-2.4624216,1.2207332,-0.0001455,0.0000127,0.0001005\PG=C01 [X(C8
 H4O3)]\NImag=0\\0.41803415,-0.00001608,0.42101010,0.00000991,-0.000019
 78,0.04814407,0.03800236,-0.02097242,0.00000166,0.22938211,0.00305167,
 -0.11954561,0.00000749,-0.31483454,0.84148061,0.00000046,0.00000602,0.
 01520111,0.00001563,-0.00003712,0.03106457,0.03800268,0.02097339,-0.00
 000029,0.00234051,0.00306037,0.00000002,0.22937739,-0.00305163,-0.1195
 4599,0.00000693,-0.00306011,-0.01477516,0.00000064,0.31482430,0.841468
 33,0.00000075,0.00000673,0.01520132,0.00000013,0.00000072,-0.00098950,
 -0.00000300,-0.00001550,0.03106557,-0.04713137,-0.02205694,-0.00000078
 ,-0.02179830,0.03661037,-0.00000320,-0.00686385,-0.00527221,-0.0000003
 2,0.74015333,-0.03165799,-0.01078784,0.00000102,0.05554601,-0.02893851
 ,0.00000348,0.00298413,0.00269699,0.00000028,0.08651794,0.73363743,0.0
 0000068,0.00000067,0.01681386,-0.00000308,0.00000257,0.02181232,-0.000
 00008,-0.00000011,0.00176220,0.00001636,-0.00003034,0.10762589,-0.0471
 3276,0.02205671,-0.00000249,-0.00686388,0.00527177,-0.00000023,-0.0217
 9952,-0.03661090,0.00000091,-0.11563842,-0.03730161,-0.00000017,0.7401
 5053,0.03165875,-0.01078692,0.00000261,-0.00298427,0.00269747,0.000000
 11,-0.05554679,-0.02893893,0.00000048,0.03729830,-0.35120307,0.0000190
 8,-0.08651851,0.73364029,-0.00000421,0.00000203,0.01681448,-0.00000030
 ,0.00000014,0.00176238,0.00000036,0.00000027,0.02181246,-0.00000371,0.
 00001705,-0.03981709,0.00002003,-0.00003677,0.10762638,0.00024452,0.00
 339595,-0.00000017,0.00387949,-0.00393896,0.00000028,-0.00128092,-0.00
 140311,0.00000015,-0.28424285,-0.07996885,-0.00000511,0.03196088,-0.08
 394126,0.00000484,0.66159525,0.00786945,0.00514037,-0.00000012,0.00125
 404,-0.00361867,0.00000014,-0.00309823,0.00011823,-0.00000024,-0.14211
 352,-0.20439050,0.00000210,-0.02786895,-0.02570557,0.00000077,0.012785
 36,0.76896231,-0.00000039,0.00000001,0.00243344,0.00000006,0.00000005,
 -0.00057185,0.00000026,-0.00000004,-0.00147129,-0.00000227,0.00000379,
 -0.05155955,0.00000250,-0.00000116,-0.00052851,0.00001759,-0.00003038,
 0.13391210,0.00024446,-0.00339556,0.00000016,-0.00128087,0.00140326,-0
 .00000012,0.00387914,0.00393867,0.00000004,0.03196177,0.08394050,-0.00
 000283,-0.28424216,0.07996979,-0.00001017,-0.07781669,-0.00309192,-0.0
 0000239,0.66159501,-0.00786957,0.00514014,-0.00000049,0.00309818,0.000
 11828,-0.00000008,-0.00125407,-0.00361878,0.00000005,0.02786838,-0.025
 70669,0.00000219,0.14211470,-0.20439308,0.00001179,0.00309278,0.001236
 53,-0.00000013,-0.01278495,0.76896320,0.00000038,-0.00000031,0.0024334
 5,-0.00000026,0.,-0.00147134,0.00000025,0.00000034,-0.00057189,-0.0000
 0062,0.00000410,-0.00052864,-0.00001336,0.00000939,-0.05155941,-0.0000
 0248,-0.00000033,-0.00058650,0.00001602,-0.00003297,0.13391179,-0.1956
 3076,-0.04472200,-0.00000106,-0.23348370,0.29130133,-0.00001331,-0.010
 41914,0.02608066,-0.00000122,-0.19737313,0.03550719,-0.00000727,-0.016
 58221,0.02922046,-0.00000119,-0.02472403,0.00220416,-0.00000082,0.0071
 5110,-0.00413518,0.00000038,0.60208922,-0.03183242,-0.08730402,0.00000
 050,0.27898192,-0.70156966,0.00002753,-0.00180242,0.02339935,-0.000000
 68,0.00488296,-0.09954503,0.00000251,0.02744667,-0.01668744,0.00000168
 ,-0.00560999,0.01693044,-0.00000129,0.00151911,-0.01029246,0.00000118,
 -0.29294517,0.98282209,-0.00000227,0.00000126,-0.05758925,-0.00001362,
 0.00002837,-0.07128323,-0.00000065,-0.00000093,0.00520806,-0.00000360,
 0.00000330,-0.07116468,-0.00000205,0.00000065,-0.00341947,-0.00000064,
 -0.00000080,-0.00272241,-0.00000020,0.00000105,0.00855913,0.00002112,-
 0.00003827,0.19844285,-0.19564063,0.04473724,-0.00000674,-0.01041892,-
 0.02608132,0.00000055,-0.23347768,-0.29128957,0.00000243,-0.01658312,-
 0.02922019,0.00000030,-0.19736808,-0.03550417,0.00000194,0.00715127,0.
 00413525,-0.00000026,-0.02472266,-0.00220347,-0.00000055,0.06566172,0.
 03370888,0.00000102,0.60208742,0.03184782,-0.08733139,0.00000215,0.001
 80186,0.02339839,-0.00000075,-0.27897137,-0.70155711,0.00000820,-0.027
 44598,-0.01668577,0.00000042,-0.00487952,-0.09954472,0.00000275,-0.001
 51944,-0.01029237,0.00000099,0.00561070,0.01693085,-0.00000112,-0.0337
 0774,-0.10251360,0.00000537,0.29291404,0.98283583,-0.00000506,0.000003
 63,-0.05758847,-0.00000022,-0.00000230,0.00520793,0.00000307,0.0000085
 9,-0.07128452,0.00000155,-0.00000081,-0.00341895,-0.00000204,0.0000020
 5,-0.07116569,-0.00000004,0.00000115,0.00855904,-0.00000099,-0.0000011
 1,-0.00272228,0.00000301,0.00000699,-0.00894058,0.00000162,-0.00001879
 ,0.19844397,-0.00391045,-0.00042147,-0.00000003,0.00058339,0.00189473,
 0.00000003,0.00040994,0.00029429,0.00000003,-0.06345085,-0.02713610,-0
 .00000080,-0.01768214,0.03605702,-0.00000243,-0.28268592,0.13058767,-0
 .00001297,0.04213840,-0.03002891,0.00000272,0.00032955,-0.00922071,0.0
 0000022,0.00014502,0.00332613,-0.00000027,0.72664812,0.00136136,0.0013
 9128,-0.00000003,0.00014415,-0.00015095,-0.00000003,-0.00130667,0.0001
 7260,0.00000001,0.02891066,0.07370280,-0.00000265,0.03202867,-0.060849
 85,0.00000383,0.05408786,-0.19038741,0.00000769,-0.08503231,-0.0220544
 2,-0.00000136,-0.00634264,0.00149784,-0.00000005,0.00291826,-0.0053372
 5,0.00000024,0.03178392,0.66404642,-0.00000029,-0.00000011,-0.00097989
 ,0.00000002,0.00000008,-0.00120625,0.00000003,0.,0.00026448,-0.0000037
 8,-0.00000435,0.00320400,-0.00000198,0.00000397,-0.00288185,-0.0000088
 0,0.00000993,-0.06146134,0.00000537,0.00000023,0.00323300,0.00000006,-
 0.00000003,0.00930731,-0.00000004,0.00000026,-0.00198142,0.00001690,-0
 .00002335,0.13927795,-0.00391050,0.00042122,-0.00000014,0.00040990,-0.
 00029431,-0.00000003,0.00058350,-0.00189472,0.00000008,-0.01768161,-0.
 03605793,0.00000139,-0.06345078,0.02713759,-0.00000329,0.04213953,0.03
 002820,-0.00000026,-0.28268709,-0.13058646,-0.00000051,0.00014523,-0.0
 0332614,0.00000045,0.00032951,0.00922077,-0.00000080,-0.13430511,0.040
 06241,-0.00000422,0.72664550,-0.00136136,0.00139094,-0.00000019,0.0013
 0657,0.00017258,0.00000008,-0.00014400,-0.00015079,-0.00000005,-0.0320
 2996,-0.06084860,0.00000183,-0.02890894,0.07370329,-0.00000488,0.08503
 174,-0.02205577,0.00000404,-0.05408659,-0.19038557,0.00000503,-0.00291
 797,-0.00533716,0.00000015,0.00634195,0.00149749,0.00000051,-0.0400645
 1,-0.31927450,0.00001093,-0.03178397,0.66404657,0.00000007,-0.00000009
 ,-0.00097990,-0.00000002,-0.00000001,0.00026448,0.00000012,-0.00000003
 ,-0.00120623,0.00000100,0.00000183,-0.00288186,-0.00000035,-0.00000284
 ,0.00320384,-0.00000295,0.00000206,0.00323301,-0.00000488,0.00000227,-
 0.06146125,0.00000014,0.00000006,-0.00198142,-0.00000053,0.00000062,0.
 00930731,-0.00000035,0.00001345,-0.06282831,0.00002018,-0.00002596,0.1
 3927823,0.00004608,0.00144680,-0.00000012,0.00047629,0.00185047,-0.000
 00007,-0.00093110,-0.00012809,-0.00000003,0.00678004,-0.02762012,0.000
 00155,-0.00478725,-0.00191558,-0.00000031,-0.05928116,0.00306927,-0.00
 000086,-0.00124974,0.00009685,0.,0.00105307,-0.00215666,0.00000026,0.0
 0153567,-0.00197463,0.00000016,0.00580884,0.02650088,-0.00000132,-0.00
 450036,0.00236982,-0.00000055,0.05422725,-0.00027168,0.00027061,0.,-0.
 00074525,0.00077914,-0.00000001,-0.00038917,-0.00011564,-0.00000003,0.
 00168022,-0.01131838,0.00000080,-0.00260610,0.00131125,0.00000023,0.00
 327375,-0.34256893,0.00001578,0.00025115,0.00060766,-0.00000006,0.0010
 1982,-0.00098470,-0.00000016,0.00068874,-0.00074638,0.00000009,-0.0030
 2484,-0.00847836,0.00000057,0.00242520,0.00058655,0.00000043,-0.002355
 75,0.36068952,0.00000005,0.00000004,0.00035907,0.00000004,0.,0.0004081
 0,-0.00000002,-0.00000003,-0.00036185,0.00000022,-0.00000020,0.0031697
 9,-0.00000041,0.00000025,0.00805016,-0.00000108,0.00001598,-0.03948105
 ,-0.00000011,-0.00000003,-0.00121380,0.00000012,-0.00000019,-0.0043748
 3,0.00000002,-0.00000006,0.00060605,0.00000033,0.00000130,0.00418018,-
 0.00000043,0.00000051,0.00787741,0.00000105,-0.00001734,0.02629173,0.0
 0004610,-0.00144684,0.00000010,-0.00093109,0.00012807,0.,0.00047633,-0
 .00185049,0.00000006,-0.00478720,0.00191568,-0.00000046,0.00678034,0.0
 2762000,-0.00000145,-0.00124976,-0.00009683,0.,-0.05928109,-0.00307243
 ,-0.00000036,0.00153568,0.00197466,-0.00000013,0.00105303,0.00215662,0
 .00000008,-0.00450040,-0.00236976,-0.00000024,0.00580857,-0.02650100,0
 .00000147,0.00011067,0.00002486,0.00000003,0.05422712,0.00027168,0.000
 27062,0.,0.00038917,-0.00011563,0.,0.00074522,0.00077918,0.00000003,0.
 00260612,0.00131116,0.00000041,-0.00168030,-0.01131875,0.00000070,-0.0
 0025111,0.00060767,-0.00000009,-0.00327684,-0.34256937,0.00001638,-0.0
 0068873,-0.00074640,0.00000006,-0.00101987,-0.00098474,-0.00000022,-0.
 00242514,0.00058662,0.00000031,0.00302467,-0.00847806,0.00000076,-0.00
 002486,-0.00007822,-0.00000006,0.00235906,0.36069003,-0.00000006,-0.00
 000004,0.00035909,-0.00000002,-0.00000002,-0.00036185,-0.00000005,-0.0
 0000011,0.00040808,-0.00000042,0.00000024,0.00805019,-0.00000015,0.000
 00182,0.00316982,0.00000019,-0.00000003,-0.00121380,0.00000006,0.00001
 646,-0.03948103,0.00000004,0.00000008,0.00060604,0.00000018,-0.0000001
 0,-0.00437485,-0.00000037,0.00000043,0.00787741,-0.00000034,-0.0000004
 0,0.00418012,0.00000005,-0.00000006,-0.00122751,0.00000075,-0.00001806
 ,0.02629172,-0.00063193,-0.00057221,0.00000004,-0.00030022,0.00037552,
 -0.00000002,0.00000294,-0.00020155,0.,-0.00390926,0.00351792,-0.000000
 58,0.00056482,0.00096656,0.,-0.01716378,-0.01494130,-0.00000002,0.0014
 7416,0.00072256,-0.00000020,0.00066321,-0.00112885,0.00000006,-0.00041
 581,0.00049185,0.,-0.27357280,-0.11984619,-0.00000184,0.00404417,0.002
 90047,-0.00000010,0.00060061,0.00024267,0.00000014,0.00011109,0.000213
 61,0.,0.28794354,0.00038208,0.00034386,-0.00000004,0.00002296,-0.00011
 039,0.,-0.00005173,0.00017812,0.,0.00378784,-0.00083611,0.00000054,0.0
 0124416,-0.00108793,0.00000006,0.01549581,0.01176159,0.00000016,0.0005
 3046,-0.00573791,0.00000061,0.00023564,0.00073649,0.,0.00010986,-0.000
 40574,-0.00000002,-0.11972430,-0.12523866,0.00000006,-0.02810236,-0.00
 962589,-0.00000031,-0.00047777,0.00052493,-0.00000023,-0.00131937,-0.0
 0047903,-0.00000002,0.12756282,0.12952758,-0.00000002,-0.00000006,-0.0
 0031119,0.,0.00000001,0.00002270,0.,-0.00000001,0.00014041,-0.00000053
 ,0.00000063,0.00783823,-0.00000001,0.00000003,-0.00090574,-0.00000153,
 -0.00000078,0.00426414,-0.00000007,0.00000059,0.00719455,0.,-0.0000000
 3,0.00034161,0.00000001,-0.00000002,-0.00098912,-0.00000181,0.00000010
 ,-0.03990216,0.00000120,0.00000058,0.00389683,0.00000020,-0.00000023,-
 0.00410447,0.00000004,0.00000001,-0.00017897,0.00000239,-0.00000064,0.
 02652076,-0.00063196,0.00057220,-0.00000005,0.00000294,0.00020155,-0.0
 0000001,-0.00030022,-0.00037553,0.,0.00056481,-0.00096659,0.00000009,-
 0.00390938,-0.00351788,-0.00000012,0.00147415,-0.00072264,-0.00000017,
 -0.01716374,0.01494159,-0.00000139,-0.00041581,-0.00049185,0.00000005,
 0.00066326,0.00112890,-0.00000006,0.00404442,-0.00290061,0.00000013,-0
 .27357047,0.11984776,-0.00001326,0.00011110,-0.00021362,0.00000002,0.0
 0060062,-0.00024267,0.00000015,0.00058927,0.00030389,0.00000014,0.2879
 4102,-0.00038208,0.00034384,-0.00000006,0.00005172,0.00017811,0.,-0.00
 002295,-0.00011039,0.,-0.00124418,-0.00108789,-0.00000003,-0.00378783,
 -0.00083604,0.00000033,-0.00053052,-0.00573791,0.00000058,-0.01549548,
 0.01176161,-0.00000089,-0.00010984,-0.00040574,-0.00000002,-0.00023563
 ,0.00073651,-0.00000001,0.02810222,-0.00962615,0.00000152,0.11972582,-
 0.12524109,0.00000774,0.00131937,-0.00047905,0.00000006,0.00047778,0.0
 0052493,-0.00000021,-0.00030390,0.00044910,-0.00000020,-0.12756449,0.1
 2953016,-0.00000002,0.,-0.00031120,0.,0.,0.00014042,-0.00000002,0.,0.0
 0002271,0.00000011,-0.00000003,-0.00090573,-0.00000019,0.00000036,0.00
 783823,-0.00000026,0.00000053,0.00719457,0.00000010,0.00000017,0.00426
 420,0.,-0.00000005,-0.00098914,0.00000004,0.00000006,0.00034158,-0.000
 00120,0.00000040,0.00389689,-0.00001328,0.00000782,-0.03990227,-0.0000
 0003,0.,-0.00017898,0.00000011,-0.00000025,-0.00410447,0.00000014,-0.0
 0000018,-0.00382757,0.00001449,-0.00000882,0.02652075\\0.00007967,-0.0
 0000509,-0.00000066,0.00002540,-0.00004500,0.00000267,0.00002568,0.000
 04223,-0.00000364,0.00008040,-0.00006137,0.00000111,0.00008170,0.00006
 047,-0.00000262,-0.00007626,-0.00002880,0.00000152,-0.00007628,0.00002
 881,-0.00000112,-0.00010030,0.00007984,-0.00000716,-0.00010571,-0.0000
 7134,0.00000987,0.00004336,-0.00002487,-0.00000015,0.00004348,0.000024
 86,0.00000027,-0.00000793,0.00000061,-0.00000009,-0.00000800,-0.000000
 44,0.00000001,-0.00000259,-0.00000021,-0.00000016,-0.00000261,0.000000
 29,0.00000016\\\@


 TOM, TOM, THE BURGLAR'S SON
 STOLE A MACHINE AND AWAY HE RUN
 THE JOB WAS NEAT, BUT TOM GOT BEAT
 BY THE TIME HE GOT HOME IT WAS OBSOLETE.
 Job cpu time:       0 days  1 hours 45 minutes 55.4 seconds.
 Elapsed time:       0 days  0 hours  6 minutes 41.1 seconds.
 File lengths (MBytes):  RWF=    114 Int=      0 D2E=      0 Chk=      7 Scr=      1
 Normal termination of Gaussian 16 at Sun Sep 21 03:08:51 2025.
