 Entering Gaussian System, Link 0=g16
 Input=PHET0044.gjf
 Output=PHET0044.log
 Initial command:
 /usr/local/g16/l1.exe "/dados_01/scratch/Gau-2169716.inp" -scrdir="/dados_01/scratch/"
 Entering Link 1 = /usr/local/g16/l1.exe PID=   2169717.
  
 Copyright (c) 1988-2017, Gaussian, Inc.  All Rights Reserved.
  
 This is part of the Gaussian(R) 16 program.  It is based on
 the Gaussian(R) 09 system (copyright 2009, Gaussian, Inc.),
 the Gaussian(R) 03 system (copyright 2003, Gaussian, Inc.),
 the Gaussian(R) 98 system (copyright 1998, Gaussian, Inc.),
 the Gaussian(R) 94 system (copyright 1995, Gaussian, Inc.),
 the Gaussian 92(TM) system (copyright 1992, Gaussian, Inc.),
 the Gaussian 90(TM) system (copyright 1990, Gaussian, Inc.),
 the Gaussian 88(TM) system (copyright 1988, Gaussian, Inc.),
 the Gaussian 86(TM) system (copyright 1986, Carnegie Mellon
 University), and the Gaussian 82(TM) system (copyright 1983,
 Carnegie Mellon University). Gaussian is a federally registered
 trademark of Gaussian, Inc.
  
 This software contains proprietary and confidential information,
 including trade secrets, belonging to Gaussian, Inc.
  
 This software is provided under written license and may be
 used, copied, transmitted, or stored only in accord with that
 written license.
  
 The following legend is applicable only to US Government
 contracts under FAR:
  
                    RESTRICTED RIGHTS LEGEND
  
 Use, reproduction and disclosure by the US Government is
 subject to restrictions as set forth in subparagraphs (a)
 and (c) of the Commercial Computer Software - Restricted
 Rights clause in FAR 52.227-19.
  
 Gaussian, Inc.
 340 Quinnipiac St., Bldg. 40, Wallingford CT 06492
  
  
 ---------------------------------------------------------------
 Warning -- This program may not be used in any manner that
 competes with the business of Gaussian, Inc. or will provide
 assistance to any competitor of Gaussian, Inc.  The licensee
 of this program is prohibited from giving any competitor of
 Gaussian, Inc. access to this program.  By using this program,
 the user acknowledges that Gaussian, Inc. is engaged in the
 business of creating and licensing software in the field of
 computational chemistry and represents and warrants to the
 licensee that it is not a competitor of Gaussian, Inc. and that
 it will not use this program in any manner prohibited above.
 ---------------------------------------------------------------
  

 Cite this work as:
 Gaussian 16, Revision B.01,
 M. J. Frisch, G. W. Trucks, H. B. Schlegel, G. E. Scuseria, 
 M. A. Robb, J. R. Cheeseman, G. Scalmani, V. Barone, 
 G. A. Petersson, H. Nakatsuji, X. Li, M. Caricato, A. V. Marenich, 
 J. Bloino, B. G. Janesko, R. Gomperts, B. Mennucci, H. P. Hratchian, 
 J. V. Ortiz, A. F. Izmaylov, J. L. Sonnenberg, D. Williams-Young, 
 F. Ding, F. Lipparini, F. Egidi, J. Goings, B. Peng, A. Petrone, 
 T. Henderson, D. Ranasinghe, V. G. Zakrzewski, J. Gao, N. Rega, 
 G. Zheng, W. Liang, M. Hada, M. Ehara, K. Toyota, R. Fukuda, 
 J. Hasegawa, M. Ishida, T. Nakajima, Y. Honda, O. Kitao, H. Nakai, 
 T. Vreven, K. Throssell, J. A. Montgomery, Jr., J. E. Peralta, 
 F. Ogliaro, M. J. Bearpark, J. J. Heyd, E. N. Brothers, K. N. Kudin, 
 V. N. Staroverov, T. A. Keith, R. Kobayashi, J. Normand, 
 K. Raghavachari, A. P. Rendell, J. C. Burant, S. S. Iyengar, 
 J. Tomasi, M. Cossi, J. M. Millam, M. Klene, C. Adamo, R. Cammi, 
 J. W. Ochterski, R. L. Martin, K. Morokuma, O. Farkas, 
 J. B. Foresman, and D. J. Fox, Gaussian, Inc., Wallingford CT, 2016.
 
 ******************************************
 Gaussian 16:  ES64L-G16RevB.01 20-Dec-2017
                21-Sep-2025 
 ******************************************
 %nprocs=16
 Will use up to   16 processors via shared memory.
 %mem=40GB
 %chk=PHET0044.chk
 ----------------------------------------------------------------------
 # opt freq=noraman M08HX/6-311++G** scf=xqc Empiricaldispersion=pfd In
 t(Grid=ultraFine)
 ----------------------------------------------------------------------
 1/18=20,19=15,26=4,38=1/1,3;
 2/9=110,12=2,17=6,18=5,40=1/2;
 3/5=4,6=6,7=1111,11=2,25=1,30=1,71=1,74=-74,75=-5,124=11/1,2,3;
 4//1;
 5/5=2,8=3,13=1,38=5/2,8;
 6/7=2,8=2,9=2,10=2,28=1/1;
 7//1,2,3,16;
 1/18=20,19=15,26=4/3(2);
 2/9=110/2;
 99//99;
 2/9=110/2;
 3/5=4,6=6,7=1111,11=2,25=1,30=1,71=1,74=-74,75=-5,124=11/1,2,3;
 4/5=5,16=3,69=1/1;
 5/5=2,8=3,13=1,38=5/2,8;
 7//1,2,3,16;
 1/18=20,19=15,26=4/3(-5);
 2/9=110/2;
 6/7=2,8=2,9=2,10=2,19=2,28=1/1;
 99/9=1/99;
 --------
 PHET0044
 --------
 Symbolic Z-matrix:
 Charge =  0 Multiplicity = 1
 O                     1.8203    12.5411   4.6035 
 O                     3.643     14.4242   3.8812 
 C                     2.7315    11.5191   4.7312 
 O                     5.6187    10.4243   1.9632 
 C                     4.5719    10.1252   4.0586 
 C                     3.7114    11.2019   3.8145 
 H                     3.8004    11.7023   3.0356 
 C                     6.5095    8.6607    3.2475 
 H                     6.4873    8.2234    4.068 
 C                     8.3675    7.1921    2.4569 
 C                     5.5792    9.7807    3.0062 
 C                     2.5994    10.7771   5.9013 
 H                     1.9294    10.9845   6.5122 
 C                     7.3772    8.2597    2.3257 
 H                     7.3521    8.7053    1.5098 
 C                     4.4517    9.403     5.2413 
 H                     5.0331    8.6994    5.4194 
 C                     9.1127    6.8015    1.3427 
 H                     8.9613    7.2161    0.5241 
 C                     1.668     13.2044   3.3632 
 H                     0.7722    13.5722   3.3098 
 H                     1.7668    12.559    2.6459 
 C                     8.6224    6.5512    3.6736 
 H                     8.1287    6.7821    4.4271 
 C                     10.0721   5.8089    1.4347 
 H                     10.5452   5.5482    0.6777 
 C                     3.4646    9.734     6.1519 
 H                     3.3841    9.2482    6.9407 
 C                     10.327    5.2047    2.6513 
 H                     10.9843   4.5504    2.7194 
 C                     2.4008    15.303    2.0679 
 C                     2.6726    14.3217   3.1635 
 C                     9.5987    5.579     3.7687 
 H                     9.7684    5.1731    4.5881 
 C                     1.9111    17.2009   0.0955 
 H                     1.7591    17.8381  -0.5644 
 C                     1.1452    15.3456   1.3962 
 H                     0.4761    14.7398   1.6197 
 C                     3.3344    16.2565   1.7484 
 H                     4.1353    16.2844   2.221 
 C                     0.9217    16.3012   0.4 
 H                     0.1094    16.3258  -0.0523 
 C                     3.1081    17.1819   0.7364 
 H                     3.774     17.7859   0.499 
 

 GradGradGradGradGradGradGradGradGradGradGradGradGradGradGradGradGradGrad
 Berny optimization.
 Initialization pass.
                           ----------------------------
                           !    Initial Parameters    !
                           ! (Angstroms and Degrees)  !
 --------------------------                            --------------------------
 ! Name  Definition              Value          Derivative Info.                !
 --------------------------------------------------------------------------------
 ! R1    R(1,3)                  1.3752         estimate D2E/DX2                !
 ! R2    R(1,20)                 1.4147         estimate D2E/DX2                !
 ! R3    R(2,32)                 1.2113         estimate D2E/DX2                !
 ! R4    R(3,6)                  1.3788         estimate D2E/DX2                !
 ! R5    R(3,12)                 1.3918         estimate D2E/DX2                !
 ! R6    R(4,11)                 1.2262         estimate D2E/DX2                !
 ! R7    R(5,6)                  1.3998         estimate D2E/DX2                !
 ! R8    R(5,11)                 1.497          estimate D2E/DX2                !
 ! R9    R(5,16)                 1.391          estimate D2E/DX2                !
 ! R10   R(6,7)                  0.9301         estimate D2E/DX2                !
 ! R11   R(8,9)                  0.93           estimate D2E/DX2                !
 ! R12   R(8,11)                 1.4758         estimate D2E/DX2                !
 ! R13   R(8,14)                 1.3279         estimate D2E/DX2                !
 ! R14   R(10,14)                1.4621         estimate D2E/DX2                !
 ! R15   R(10,18)                1.3962         estimate D2E/DX2                !
 ! R16   R(10,23)                1.3986         estimate D2E/DX2                !
 ! R17   R(12,13)                0.9301         estimate D2E/DX2                !
 ! R18   R(12,27)                1.3782         estimate D2E/DX2                !
 ! R19   R(14,15)                0.93           estimate D2E/DX2                !
 ! R20   R(16,17)                0.9299         estimate D2E/DX2                !
 ! R21   R(16,27)                1.3832         estimate D2E/DX2                !
 ! R22   R(18,19)                0.93           estimate D2E/DX2                !
 ! R23   R(18,25)                1.3835         estimate D2E/DX2                !
 ! R24   R(20,21)                0.9698         estimate D2E/DX2                !
 ! R25   R(20,22)                0.97           estimate D2E/DX2                !
 ! R26   R(20,32)                1.5157         estimate D2E/DX2                !
 ! R27   R(23,24)                0.93           estimate D2E/DX2                !
 ! R28   R(23,33)                1.3811         estimate D2E/DX2                !
 ! R29   R(25,26)                0.93           estimate D2E/DX2                !
 ! R30   R(25,29)                1.3821         estimate D2E/DX2                !
 ! R31   R(27,28)                0.9299         estimate D2E/DX2                !
 ! R32   R(29,30)                0.9299         estimate D2E/DX2                !
 ! R33   R(29,33)                1.3853         estimate D2E/DX2                !
 ! R34   R(31,32)                1.4957         estimate D2E/DX2                !
 ! R35   R(31,37)                1.4246         estimate D2E/DX2                !
 ! R36   R(31,39)                1.3722         estimate D2E/DX2                !
 ! R37   R(33,34)                0.93           estimate D2E/DX2                !
 ! R38   R(35,36)                0.9298         estimate D2E/DX2                !
 ! R39   R(35,41)                1.3715         estimate D2E/DX2                !
 ! R40   R(35,43)                1.3579         estimate D2E/DX2                !
 ! R41   R(37,38)                0.9299         estimate D2E/DX2                !
 ! R42   R(37,41)                1.3984         estimate D2E/DX2                !
 ! R43   R(39,40)                0.9304         estimate D2E/DX2                !
 ! R44   R(39,43)                1.3899         estimate D2E/DX2                !
 ! R45   R(41,42)                0.9301         estimate D2E/DX2                !
 ! R46   R(43,44)                0.9298         estimate D2E/DX2                !
 ! A1    A(3,1,20)             120.0783         estimate D2E/DX2                !
 ! A2    A(1,3,6)              125.4601         estimate D2E/DX2                !
 ! A3    A(1,3,12)             114.2917         estimate D2E/DX2                !
 ! A4    A(6,3,12)             120.2478         estimate D2E/DX2                !
 ! A5    A(6,5,11)             117.91           estimate D2E/DX2                !
 ! A6    A(6,5,16)             119.6386         estimate D2E/DX2                !
 ! A7    A(11,5,16)            122.4405         estimate D2E/DX2                !
 ! A8    A(3,6,5)              119.8614         estimate D2E/DX2                !
 ! A9    A(3,6,7)              120.0675         estimate D2E/DX2                !
 ! A10   A(5,6,7)              120.071          estimate D2E/DX2                !
 ! A11   A(9,8,11)             119.0802         estimate D2E/DX2                !
 ! A12   A(9,8,14)             119.0794         estimate D2E/DX2                !
 ! A13   A(11,8,14)            121.8404         estimate D2E/DX2                !
 ! A14   A(14,10,18)           119.6159         estimate D2E/DX2                !
 ! A15   A(14,10,23)           122.4195         estimate D2E/DX2                !
 ! A16   A(18,10,23)           117.9541         estimate D2E/DX2                !
 ! A17   A(4,11,5)             119.925          estimate D2E/DX2                !
 ! A18   A(4,11,8)             121.1365         estimate D2E/DX2                !
 ! A19   A(5,11,8)             118.9383         estimate D2E/DX2                !
 ! A20   A(3,12,13)            120.1103         estimate D2E/DX2                !
 ! A21   A(3,12,27)            119.787          estimate D2E/DX2                !
 ! A22   A(13,12,27)           120.1028         estimate D2E/DX2                !
 ! A23   A(8,14,10)            126.926          estimate D2E/DX2                !
 ! A24   A(8,14,15)            116.5306         estimate D2E/DX2                !
 ! A25   A(10,14,15)           116.5434         estimate D2E/DX2                !
 ! A26   A(5,16,17)            120.1091         estimate D2E/DX2                !
 ! A27   A(5,16,27)            119.8146         estimate D2E/DX2                !
 ! A28   A(17,16,27)           120.0764         estimate D2E/DX2                !
 ! A29   A(10,18,19)           119.3947         estimate D2E/DX2                !
 ! A30   A(10,18,25)           121.1823         estimate D2E/DX2                !
 ! A31   A(19,18,25)           119.423          estimate D2E/DX2                !
 ! A32   A(1,20,21)            108.9965         estimate D2E/DX2                !
 ! A33   A(1,20,22)            108.9897         estimate D2E/DX2                !
 ! A34   A(1,20,32)            112.9395         estimate D2E/DX2                !
 ! A35   A(21,20,22)           107.8007         estimate D2E/DX2                !
 ! A36   A(21,20,32)           108.9885         estimate D2E/DX2                !
 ! A37   A(22,20,32)           108.9981         estimate D2E/DX2                !
 ! A38   A(10,23,24)           119.6262         estimate D2E/DX2                !
 ! A39   A(10,23,33)           120.7516         estimate D2E/DX2                !
 ! A40   A(24,23,33)           119.6222         estimate D2E/DX2                !
 ! A41   A(18,25,26)           119.9845         estimate D2E/DX2                !
 ! A42   A(18,25,29)           120.0045         estimate D2E/DX2                !
 ! A43   A(26,25,29)           120.011          estimate D2E/DX2                !
 ! A44   A(12,27,16)           120.6259         estimate D2E/DX2                !
 ! A45   A(12,27,28)           119.6897         estimate D2E/DX2                !
 ! A46   A(16,27,28)           119.6844         estimate D2E/DX2                !
 ! A47   A(25,29,30)           120.1596         estimate D2E/DX2                !
 ! A48   A(25,29,33)           119.6662         estimate D2E/DX2                !
 ! A49   A(30,29,33)           120.1742         estimate D2E/DX2                !
 ! A50   A(32,31,37)           121.6781         estimate D2E/DX2                !
 ! A51   A(32,31,39)           120.1863         estimate D2E/DX2                !
 ! A52   A(37,31,39)           117.9758         estimate D2E/DX2                !
 ! A53   A(2,32,20)            121.0159         estimate D2E/DX2                !
 ! A54   A(2,32,31)            121.6051         estimate D2E/DX2                !
 ! A55   A(20,32,31)           117.3665         estimate D2E/DX2                !
 ! A56   A(23,33,29)           120.4177         estimate D2E/DX2                !
 ! A57   A(23,33,34)           119.7938         estimate D2E/DX2                !
 ! A58   A(29,33,34)           119.7886         estimate D2E/DX2                !
 ! A59   A(36,35,41)           119.2861         estimate D2E/DX2                !
 ! A60   A(36,35,43)           119.2516         estimate D2E/DX2                !
 ! A61   A(41,35,43)           121.4623         estimate D2E/DX2                !
 ! A62   A(31,37,38)           120.0921         estimate D2E/DX2                !
 ! A63   A(31,37,41)           119.8138         estimate D2E/DX2                !
 ! A64   A(38,37,41)           120.0941         estimate D2E/DX2                !
 ! A65   A(31,39,40)           119.2267         estimate D2E/DX2                !
 ! A66   A(31,39,43)           121.428          estimate D2E/DX2                !
 ! A67   A(40,39,43)           119.3452         estimate D2E/DX2                !
 ! A68   A(35,41,37)           119.4149         estimate D2E/DX2                !
 ! A69   A(35,41,42)           120.3132         estimate D2E/DX2                !
 ! A70   A(37,41,42)           120.2719         estimate D2E/DX2                !
 ! A71   A(35,43,39)           119.7689         estimate D2E/DX2                !
 ! A72   A(35,43,44)           120.1121         estimate D2E/DX2                !
 ! A73   A(39,43,44)           120.119          estimate D2E/DX2                !
 ! D1    D(20,1,3,6)            12.0717         estimate D2E/DX2                !
 ! D2    D(20,1,3,12)         -167.6902         estimate D2E/DX2                !
 ! D3    D(3,1,20,21)          154.0702         estimate D2E/DX2                !
 ! D4    D(3,1,20,22)           36.6578         estimate D2E/DX2                !
 ! D5    D(3,1,20,32)          -84.6397         estimate D2E/DX2                !
 ! D6    D(1,3,6,5)           -179.4144         estimate D2E/DX2                !
 ! D7    D(1,3,6,7)              0.5843         estimate D2E/DX2                !
 ! D8    D(12,3,6,5)             0.3344         estimate D2E/DX2                !
 ! D9    D(12,3,6,7)          -179.6669         estimate D2E/DX2                !
 ! D10   D(1,3,12,13)            0.7181         estimate D2E/DX2                !
 ! D11   D(1,3,12,27)         -179.281          estimate D2E/DX2                !
 ! D12   D(6,3,12,13)         -179.0574         estimate D2E/DX2                !
 ! D13   D(6,3,12,27)            0.9435         estimate D2E/DX2                !
 ! D14   D(11,5,6,3)           177.2811         estimate D2E/DX2                !
 ! D15   D(11,5,6,7)            -2.7176         estimate D2E/DX2                !
 ! D16   D(16,5,6,3)            -1.5468         estimate D2E/DX2                !
 ! D17   D(16,5,6,7)           178.4545         estimate D2E/DX2                !
 ! D18   D(6,5,11,4)            -0.9562         estimate D2E/DX2                !
 ! D19   D(6,5,11,8)           179.2119         estimate D2E/DX2                !
 ! D20   D(16,5,11,4)          177.8366         estimate D2E/DX2                !
 ! D21   D(16,5,11,8)           -1.9953         estimate D2E/DX2                !
 ! D22   D(6,5,16,17)         -178.5314         estimate D2E/DX2                !
 ! D23   D(6,5,16,27)            1.4856         estimate D2E/DX2                !
 ! D24   D(11,5,16,17)           2.696          estimate D2E/DX2                !
 ! D25   D(11,5,16,27)        -177.287          estimate D2E/DX2                !
 ! D26   D(9,8,11,4)           176.5119         estimate D2E/DX2                !
 ! D27   D(9,8,11,5)            -3.6583         estimate D2E/DX2                !
 ! D28   D(14,8,11,4)           -3.5025         estimate D2E/DX2                !
 ! D29   D(14,8,11,5)          176.3273         estimate D2E/DX2                !
 ! D30   D(9,8,14,10)           -1.7145         estimate D2E/DX2                !
 ! D31   D(9,8,14,15)          178.2706         estimate D2E/DX2                !
 ! D32   D(11,8,14,10)         178.2999         estimate D2E/DX2                !
 ! D33   D(11,8,14,15)          -1.715          estimate D2E/DX2                !
 ! D34   D(18,10,14,8)         173.3505         estimate D2E/DX2                !
 ! D35   D(18,10,14,15)         -6.6346         estimate D2E/DX2                !
 ! D36   D(23,10,14,8)          -7.8471         estimate D2E/DX2                !
 ! D37   D(23,10,14,15)        172.1678         estimate D2E/DX2                !
 ! D38   D(14,10,18,19)         -0.9748         estimate D2E/DX2                !
 ! D39   D(14,10,18,25)        179.0255         estimate D2E/DX2                !
 ! D40   D(23,10,18,19)       -179.8304         estimate D2E/DX2                !
 ! D41   D(23,10,18,25)          0.17           estimate D2E/DX2                !
 ! D42   D(14,10,23,24)          2.3044         estimate D2E/DX2                !
 ! D43   D(14,10,23,33)       -177.7157         estimate D2E/DX2                !
 ! D44   D(18,10,23,24)       -178.8743         estimate D2E/DX2                !
 ! D45   D(18,10,23,33)          1.1057         estimate D2E/DX2                !
 ! D46   D(3,12,27,16)          -1.0084         estimate D2E/DX2                !
 ! D47   D(3,12,27,28)         178.9813         estimate D2E/DX2                !
 ! D48   D(13,12,27,16)        178.9925         estimate D2E/DX2                !
 ! D49   D(13,12,27,28)         -1.0177         estimate D2E/DX2                !
 ! D50   D(5,16,27,12)          -0.2107         estimate D2E/DX2                !
 ! D51   D(5,16,27,28)         179.7995         estimate D2E/DX2                !
 ! D52   D(17,16,27,12)        179.8063         estimate D2E/DX2                !
 ! D53   D(17,16,27,28)         -0.1835         estimate D2E/DX2                !
 ! D54   D(10,18,25,26)        178.5973         estimate D2E/DX2                !
 ! D55   D(10,18,25,29)         -1.3839         estimate D2E/DX2                !
 ! D56   D(19,18,25,26)         -1.4023         estimate D2E/DX2                !
 ! D57   D(19,18,25,29)        178.6165         estimate D2E/DX2                !
 ! D58   D(1,20,32,2)           13.6853         estimate D2E/DX2                !
 ! D59   D(1,20,32,31)        -165.0499         estimate D2E/DX2                !
 ! D60   D(21,20,32,2)         134.9799         estimate D2E/DX2                !
 ! D61   D(21,20,32,31)        -43.7553         estimate D2E/DX2                !
 ! D62   D(22,20,32,2)        -107.6074         estimate D2E/DX2                !
 ! D63   D(22,20,32,31)         73.6574         estimate D2E/DX2                !
 ! D64   D(10,23,33,29)         -1.1762         estimate D2E/DX2                !
 ! D65   D(10,23,33,34)        178.8143         estimate D2E/DX2                !
 ! D66   D(24,23,33,29)        178.8038         estimate D2E/DX2                !
 ! D67   D(24,23,33,34)         -1.2058         estimate D2E/DX2                !
 ! D68   D(18,25,29,30)       -178.6614         estimate D2E/DX2                !
 ! D69   D(18,25,29,33)          1.3194         estimate D2E/DX2                !
 ! D70   D(26,25,29,30)          1.3574         estimate D2E/DX2                !
 ! D71   D(26,25,29,33)       -178.6617         estimate D2E/DX2                !
 ! D72   D(25,29,33,23)         -0.0531         estimate D2E/DX2                !
 ! D73   D(25,29,33,34)        179.9564         estimate D2E/DX2                !
 ! D74   D(30,29,33,23)        179.9277         estimate D2E/DX2                !
 ! D75   D(30,29,33,34)         -0.0628         estimate D2E/DX2                !
 ! D76   D(37,31,32,2)        -167.5304         estimate D2E/DX2                !
 ! D77   D(37,31,32,20)         11.1969         estimate D2E/DX2                !
 ! D78   D(39,31,32,2)           7.7805         estimate D2E/DX2                !
 ! D79   D(39,31,32,20)       -173.4922         estimate D2E/DX2                !
 ! D80   D(32,31,37,38)         -1.5777         estimate D2E/DX2                !
 ! D81   D(32,31,37,41)        178.4092         estimate D2E/DX2                !
 ! D82   D(39,31,37,38)       -176.9884         estimate D2E/DX2                !
 ! D83   D(39,31,37,41)          2.9986         estimate D2E/DX2                !
 ! D84   D(32,31,39,40)         -0.0337         estimate D2E/DX2                !
 ! D85   D(32,31,39,43)       -179.9195         estimate D2E/DX2                !
 ! D86   D(37,31,39,40)        175.4481         estimate D2E/DX2                !
 ! D87   D(37,31,39,43)         -4.4376         estimate D2E/DX2                !
 ! D88   D(36,35,41,37)       -179.712          estimate D2E/DX2                !
 ! D89   D(36,35,41,42)          0.3298         estimate D2E/DX2                !
 ! D90   D(43,35,41,37)          0.2884         estimate D2E/DX2                !
 ! D91   D(43,35,41,42)       -179.6698         estimate D2E/DX2                !
 ! D92   D(36,35,43,39)        178.3377         estimate D2E/DX2                !
 ! D93   D(36,35,43,44)         -1.6632         estimate D2E/DX2                !
 ! D94   D(41,35,43,39)         -1.6627         estimate D2E/DX2                !
 ! D95   D(41,35,43,44)        178.3364         estimate D2E/DX2                !
 ! D96   D(31,37,41,35)         -0.9645         estimate D2E/DX2                !
 ! D97   D(31,37,41,42)        178.9936         estimate D2E/DX2                !
 ! D98   D(38,37,41,35)        179.0224         estimate D2E/DX2                !
 ! D99   D(38,37,41,42)         -1.0194         estimate D2E/DX2                !
 ! D100  D(31,39,43,35)          3.8397         estimate D2E/DX2                !
 ! D101  D(31,39,43,44)       -176.1595         estimate D2E/DX2                !
 ! D102  D(40,39,43,35)       -176.046          estimate D2E/DX2                !
 ! D103  D(40,39,43,44)          3.9549         estimate D2E/DX2                !
 --------------------------------------------------------------------------------
 Trust Radius=3.00D-01 FncErr=1.00D-07 GrdErr=1.00D-06 EigMax=2.50D+02 EigMin=1.00D-04
 Number of steps in this run=    232 maximum allowed number of steps=    264.
 GradGradGradGradGradGradGradGradGradGradGradGradGradGradGradGradGradGrad

                          Input orientation:                          
 ---------------------------------------------------------------------
 Center     Atomic      Atomic             Coordinates (Angstroms)
 Number     Number       Type             X           Y           Z
 ---------------------------------------------------------------------
      1          8           0        1.820300   12.541100    4.603500
      2          8           0        3.643000   14.424200    3.881200
      3          6           0        2.731500   11.519100    4.731200
      4          8           0        5.618700   10.424300    1.963200
      5          6           0        4.571900   10.125200    4.058600
      6          6           0        3.711400   11.201900    3.814500
      7          1           0        3.800400   11.702300    3.035600
      8          6           0        6.509500    8.660700    3.247500
      9          1           0        6.487300    8.223400    4.068000
     10          6           0        8.367500    7.192100    2.456900
     11          6           0        5.579200    9.780700    3.006200
     12          6           0        2.599400   10.777100    5.901300
     13          1           0        1.929400   10.984500    6.512200
     14          6           0        7.377200    8.259700    2.325700
     15          1           0        7.352100    8.705300    1.509800
     16          6           0        4.451700    9.403000    5.241300
     17          1           0        5.033100    8.699400    5.419400
     18          6           0        9.112700    6.801500    1.342700
     19          1           0        8.961300    7.216100    0.524100
     20          6           0        1.668000   13.204400    3.363200
     21          1           0        0.772200   13.572200    3.309800
     22          1           0        1.766800   12.559000    2.645900
     23          6           0        8.622400    6.551200    3.673600
     24          1           0        8.128700    6.782100    4.427100
     25          6           0       10.072100    5.808900    1.434700
     26          1           0       10.545200    5.548200    0.677700
     27          6           0        3.464600    9.734000    6.151900
     28          1           0        3.384100    9.248200    6.940700
     29          6           0       10.327000    5.204700    2.651300
     30          1           0       10.984300    4.550400    2.719400
     31          6           0        2.400800   15.303000    2.067900
     32          6           0        2.672600   14.321700    3.163500
     33          6           0        9.598700    5.579000    3.768700
     34          1           0        9.768400    5.173100    4.588100
     35          6           0        1.911100   17.200900    0.095500
     36          1           0        1.759100   17.838100   -0.564400
     37          6           0        1.145200   15.345600    1.396200
     38          1           0        0.476100   14.739800    1.619700
     39          6           0        3.334400   16.256500    1.748400
     40          1           0        4.135300   16.284400    2.221000
     41          6           0        0.921700   16.301200    0.400000
     42          1           0        0.109400   16.325800   -0.052300
     43          6           0        3.108100   17.181900    0.736400
     44          1           0        3.774000   17.785900    0.499000
 ---------------------------------------------------------------------
                    Distance matrix (angstroms):
                    1          2          3          4          5
     1  O    0.000000
     2  O    2.718459   0.000000
     3  C    1.375164   3.161161   0.000000
     4  O    5.087226   4.856060   4.146846   0.000000
     5  C    3.701998   4.401787   2.404666   2.361345   0.000000
     6  C    2.447905   3.223716   1.378825   2.769434   1.399760
     7  H    2.661333   2.854567   2.012752   2.467699   2.031991
     8  C    6.235771   6.468101   4.964383   2.356531   2.560652
     9  H    6.380453   6.824577   5.040586   3.166798   2.699202
    10  C    8.722701   8.755159   7.460554   4.271622   5.057183
    11  C    4.929554   5.106524   3.755936   1.226226   1.496957
    12  C    2.324431   4.297818   1.391815   4.974864   2.776918
    13  H    2.465369   4.657266   2.025123   5.883720   3.706933
    14  C    7.375493   7.373255   6.163818   2.812334   3.788501
    15  H    7.408451   7.217117   6.296414   2.482984   4.030138
    16  C    4.144723   5.264629   2.774377   3.626415   1.390971
    17  H    5.074095   6.088659   3.704280   3.906856   2.024201
    18  C    9.836408   9.719422   8.628870   5.071266   6.248357
    19  H    9.797500   9.566146   8.661750   4.851446   6.342112
    20  C    1.414746   2.378416   2.417166   5.029611   4.289253
    21  H    1.958403   3.048589   3.174028   5.933900   5.184615
    22  H    1.958413   2.919771   2.522006   4.456474   3.973373
    23  C    9.111102   9.317814   7.778255   5.191203   5.415556
    24  H    8.543600   8.878131   7.187587   5.063252   4.895195
    25  C   11.111076  11.024613   9.867001   6.435371   7.467764
    26  H   11.850588  11.691285  10.636560   7.049770   8.249832
    27  C    3.602926   5.214008   2.396332   4.760448   2.400220
    28  H    4.330262   6.018185   3.234929   5.581412   3.238286
    29  C   11.401658  11.453719  10.094021   7.062988   7.701493
    30  H   12.303659  12.358657  10.987212   7.991508   8.601786
    31  C    3.793987   2.367152   4.639012   5.845302   5.957027
    32  C    2.443471   1.211312   3.211809   5.030900   4.692457
    33  C   10.472403  10.663985   9.130697   6.525118   6.783855
    34  H   10.837894  11.117692   9.476822   7.189243   7.197727
    35  C    6.484138   5.004105   7.378728   7.947132   8.535312
    36  H    7.400618   5.913303   8.301729   8.732108   9.421932
    37  C    4.313671   3.641869   5.317958   6.674795   6.788462
    38  H    3.942616   3.904259   5.014097   6.722192   6.634632
    39  C    4.924255   2.828673   5.630590   6.267274   6.667928
    40  H    5.004780   2.541450   5.565954   6.050430   6.442293
    41  C    5.710976   4.800766   6.700981   7.683968   8.053092
    42  H    6.239199   5.619149   7.270601   8.321198   8.675301
    43  C    6.176562   4.216728   6.940285   7.312545   7.935788
    44  H    6.940590   4.770478   7.633551   7.729163   8.484911
                    6          7          8          9         10
     6  C    0.000000
     7  H    0.930057   0.000000
     8  C    3.822113   4.078658   0.000000
     9  H    4.079381   4.515310   0.930024   0.000000
    10  C    6.292920   6.444781   2.496798   2.682233   0.000000
    11  C    2.482304   2.618691   1.475833   2.092187   3.844112
    12  C    2.402443   3.242011   5.177904   4.999814   7.614926
    13  H    3.240428   4.012808   6.085690   5.862784   8.501581
    14  C    4.930634   5.014873   1.327938   1.956744   1.462080
    15  H    4.979895   4.891283   1.931726   2.743081   2.053731
    16  C    2.412435   3.252089   2.959863   2.629022   5.289088
    17  H    3.253475   4.027339   2.626481   2.041459   4.708140
    18  C    7.392385   7.423226   3.723109   4.042497   1.396185
    19  H    7.367142   7.284814   3.938921   4.437855   2.022100
    20  C    2.896405   2.628832   6.640687   6.966546   9.047233
    21  H    3.809454   3.569553   7.552703   7.864280   9.955988
    22  H    2.643637   2.240832   6.168620   6.565281   8.509323
    23  C    6.765115   7.084671   3.015941   2.740521   1.398601
    24  H    6.278730   6.699166   2.746344   2.213706   2.026527
    25  C    8.672162   8.753814   4.910308   5.061114   2.421528
    26  H    9.407692   9.430004   5.707749   5.925992   3.257351
    27  C    2.771115   3.701120   4.342687   3.970046   6.644750
    28  H    3.700972   4.630952   4.873706   4.351146   7.011867
    29  C    9.004755   9.217538   5.183888   5.085556   2.797712
    30  H    9.916490  10.141897   6.098958   5.960928   3.727617
    31  C    4.646214   3.982507   7.898925   8.415499  10.076682
    32  C    3.352023   2.854741   6.839282   7.249781   9.152178
    33  C    8.141216   8.464781   4.394506   4.094294   2.416354
    34  H    8.580917   8.980965   4.957922   4.510039   3.252829
    35  C    7.284232   6.515232  10.198794  10.831337  12.142380
    36  H    8.186904   7.401010  11.014606  11.672937  12.889396
    37  C    5.440938   4.797015   8.768746   9.295283  10.943777
    38  H    5.272670   4.720397   8.718205   9.197400  10.951843
    39  C    5.473562   4.755500   8.368079   8.935996  10.392180
    40  H    5.343289   4.665980   8.050548   8.597851  10.031804
    41  C    6.741224   6.031847   9.884787  10.472869  11.943470
    42  H    7.360767   6.673482  10.516830  11.104205  12.566494
    43  C    6.752708   5.982609   9.512413  10.137715  11.420049
    44  H    7.371941   6.591299   9.914963  10.561305  11.711627
                   11         12         13         14         15
    11  C    0.000000
    12  C    4.272426   0.000000
    13  H    5.202135   0.930115   0.000000
    14  C    2.451393   6.476850   7.391200   0.000000
    15  H    2.557122   6.794541   7.721686   0.929990   0.000000
    16  C    2.531716   2.398909   3.237024   4.285605   4.777363
    17  H    2.700179   3.236041   4.006101   3.906292   4.545632
    18  C    4.912076   8.888718   9.788821   2.470748   2.598478
    19  H    4.916970   9.059182   9.975259   2.616149   2.403923
    20  C    5.210245   3.633351   3.861669   7.623741   7.482378
    21  H    6.129836   4.226951   4.276759   8.533296   8.379845
    22  H    4.731085   3.803422   4.177770   7.075528   6.880211
    23  C    4.487333   7.687484   8.515166   2.507255   3.306938
    24  H    4.184556   6.979001   7.774261   2.676553   3.579448
    25  C    6.199271  10.023710  10.902816   3.750038   3.974063
    26  H    6.927996  10.851872  11.739964   4.483789   4.566789
    27  C    3.790665   1.378198   2.012562   5.667610   6.141659
    28  H    4.536773   2.008393   2.305320   6.182249   6.747921
    29  C    6.603585  10.066278  10.901024   4.259150   4.733630
    30  H    7.526845  10.918005  11.737725   5.188938   5.649708
    31  C    6.440375   5.934490   6.214778   8.627809   8.267799
    32  C    5.393862   4.479408   4.785712   7.719003   7.495091
    33  C    5.864475   8.975435   9.775704   3.768748   4.463585
    34  H    6.425090   9.193686   9.946077   4.512581   5.271705
    35  C    8.774195   8.685982   8.934092  10.714341  10.187244
    36  H    9.605417   9.610885   9.852873  11.474383  10.908345
    37  C    7.295243   6.578892   6.768133   9.482182   9.090220
    38  H    7.249599   6.208341   6.336475   9.492909   9.149134
    39  C    6.968298   6.914523   7.243052   8.979216   8.556837
    40  H    6.708167   6.799555   7.167240   8.655443   8.264161
    41  C    8.426239   7.974626   8.163440  10.490354  10.013960
    42  H    9.061538   8.510789   8.656474  11.114755  10.628682
    43  C    8.126259   8.243569   8.553185  10.017821   9.511174
    44  H    8.580677   8.926803   9.263917  10.347385   9.812330
                   16         17         18         19         20
    16  C    0.000000
    17  H    0.929945   0.000000
    18  C    6.609978   6.071626   0.000000
    19  H    6.882659   6.449411   0.930011   0.000000
    20  C    5.072168   5.987227  10.025124   9.854565   0.000000
    21  H    5.886564   6.808073  10.921346  10.734127   0.969838
    22  H    4.889287   5.766934   9.423873   9.209204   0.969960
    23  C    5.290103   4.532732   2.395024   3.236711   9.629387
    24  H    4.588286   3.774048   3.237616   4.014348   9.171612
    25  C    7.680928   7.044455   1.383534   2.010791  11.359640
    26  H    8.533268   7.924458   2.016195   2.305260  12.026387
    27  C    1.383156   2.016717   7.976778   8.259883   4.800864
    28  H    2.012882   2.309705   8.375011   8.741130   5.603126
    29  C    7.671569   6.921032   2.395147   3.230456  11.810177
    30  H    8.519540   7.740864   3.235064   4.002228  12.731836
    31  C    7.006187   7.859331  10.855921  10.527176   2.572726
    32  C    5.628149   6.501638  10.066956   9.849047   1.515738
    33  C    6.578992   5.771171   2.759742   3.689689  11.009412
    34  H    6.825395   5.962291   3.689749   4.619670  11.472517
    35  C    9.682001  10.505537  12.710864  12.230505   5.168072
    36  H   10.588067  11.403542  13.398470  12.879573   6.074991
    37  C    7.812313   8.687570  11.682704  11.311090   2.954174
    38  H    7.576465   8.467018  11.733891  11.393201   2.611105
    39  C    7.772977   8.571557  11.088299  10.718663   3.834030
    40  H    7.521701   8.280582  10.745758  10.411715   4.108356
    41  C    9.136972   9.994266  12.578770  12.132173   4.350596
    42  H    9.736680  10.599259  13.180202  12.715149   4.882419
    43  C    9.089041   9.878710  12.007311  11.559507   4.979405
    44  H    9.655138  10.409618  12.242164  11.774098   5.799053
                   21         22         23         24         25
    21  H    0.000000
    22  H    1.567344   0.000000
    23  C   10.538142   9.173281   0.000000
    24  H   10.073327   8.776048   0.929955   0.000000
    25  C   12.258587  10.770741   2.768630   3.698429   0.000000
    26  H   12.916039  11.405500   3.698457   4.628173   0.929966
    27  C    5.482548   4.811984   6.547907   5.782947   9.017618
    28  H    6.221128   5.658831   6.737027   5.908558   9.320631
    29  C   12.717817  11.285512   2.400796   3.236384   1.382081
    30  H   13.639224  12.210871   3.239177   4.006392   2.016528
    31  C    2.681478   2.874991  10.857282  10.534724  12.222427
    32  C    2.048090   2.048291   9.800051   9.392086  11.410921
    33  C   11.916750  10.550817   1.381079   2.010433   2.392596
    34  H   12.373785  11.061160   2.012160   2.302915   3.231162
    35  C    4.979586   5.298358  13.086652  12.883039  14.077395
    36  H    5.846478   6.178591  13.872982  13.701168  14.758185
    37  C    2.635515   3.116613  11.765906  11.458148  13.062912
    38  H    2.075428   2.734023  11.731747  11.391610  13.110241
    39  C    4.025954   4.115141  11.218832  10.951027  12.435729
    40  H    4.455553   4.434968  10.815697  10.540770  12.066481
    41  C    3.992083   4.445483  12.848336  12.600462  13.960257
    42  H    4.396059   4.920980  13.486894  13.245996  14.562683
    43  C    5.010863   5.178463  12.330711  12.123676  13.354027
    44  H    5.887841   5.996542  12.641343  12.469042  13.564296
                   26         27         28         29         30
    26  H    0.000000
    27  C    9.880419   0.000000
    28  H   10.207670   0.929886   0.000000
    29  C    2.015118   8.936515   9.107838   0.000000
    30  H    2.314509   9.756928   9.881889   0.929941   0.000000
    31  C   12.783584   6.987452   7.834007  12.850707  13.773864
    32  C   12.047047   5.532160   6.365051  11.915195  12.835883
    33  C    3.232815   7.782728   7.883265   1.385317   2.019638
    34  H    4.004416   7.936320   7.930981   2.015993   2.314780
    35  C   14.514546   9.738991  10.595845  14.875090  15.787430
    36  H   15.158496  10.662732  11.521872  15.599757  16.506079
    37  C   13.596518   7.712740   8.540049  13.737488  14.666120
    38  H   13.666003   7.384443   8.180903  13.748548  14.678402
    39  C   12.954139   7.870881   8.722312  13.109308  14.017724
    40  H   12.598991   7.668739   8.505762  12.699687  13.595733
    41  C   14.433152   9.092789   9.929198  14.719386  15.643428
    42  H   15.019836   9.654082  10.474642  15.342349  16.266709
    43  C   13.807856   9.215527  10.075371  14.114981  15.017377
    44  H   13.987222   9.842972  10.702329  14.347850  15.234732
                   31         32         33         34         35
    31  C    0.000000
    32  C    1.495715   0.000000
    33  C   12.217146  11.170136   0.000000
    34  H   12.776847  11.665194   0.930037   0.000000
    35  C    2.780682   4.275781  14.410418  15.052860   0.000000
    36  H    3.710460   5.205458  15.182905  15.846115   0.929836
    37  C    1.424615   2.550426  13.133046  13.712314   2.391770
    38  H    2.054884   2.717119  13.105735  13.663088   3.231010
    39  C    1.372170   2.486753  12.543208  13.126386   2.376921
    40  H    1.998769   2.622973  12.118156  12.680535   3.210107
    41  C    2.442546   3.823742  14.198734  14.820219   1.371529
    42  H    3.285100   4.574689  14.837135  15.466490   2.008424
    43  C    2.409031   3.776403  13.636349  14.262064   1.357911
    44  H    3.242209   4.507030  13.914973  14.551161   1.993849
                   36         37         38         39         40
    36  H    0.000000
    37  C    3.230075   0.000000
    38  H    4.001980   0.929861   0.000000
    39  C    3.214354   2.397161   3.238336   0.000000
    40  H    3.977281   3.240731   4.017100   0.930360   0.000000
    41  C    1.998341   1.398406   2.030812   2.764290   3.693717
    42  H    2.295824   2.032689   2.333549   3.694313   4.623578
    43  C    1.985568   2.767727   3.697499   1.389864   2.016106
    44  H    2.278896   3.697380   4.627185   2.023194   2.313077
                   41         42         43         44
    41  C    0.000000
    42  H    0.930060   0.000000
    43  C    2.380996   3.216700   0.000000
    44  H    3.217103   3.983104   0.929837   0.000000
 Stoichiometry    C23H18O3
 Framework group  C1[X(C23H18O3)]
 Deg. of freedom   126
 Full point group                 C1      NOp   1
 Largest Abelian subgroup         C1      NOp   1
 Largest concise Abelian subgroup C1      NOp   1
                         Standard orientation:                         
 ---------------------------------------------------------------------
 Center     Atomic      Atomic             Coordinates (Angstroms)
 Number     Number       Type             X           Y           Z
 ---------------------------------------------------------------------
      1          8           0        2.778785    2.387921   -0.260693
      2          8           0        3.235402    0.389489    1.524745
      3          6           0        1.408255    2.346663   -0.155713
      4          8           0       -0.987531   -1.028644   -0.408401
      5          6           0       -0.755784    1.300038   -0.092988
      6          6           0        0.636643    1.204809   -0.199797
      7          1           0        1.040531    0.373077   -0.300310
      8          6           0       -3.023856    0.111485   -0.081720
      9          1           0       -3.420908    0.928355    0.118325
     10          6           0       -5.248883   -1.020904   -0.112476
     11          6           0       -1.555230    0.039711   -0.208485
     12          6           0        0.808286    3.592640    0.001534
     13          1           0        1.329541    4.362796    0.017879
     14          6           0       -3.794250   -0.957654   -0.245589
     15          1           0       -3.362503   -1.750478   -0.468988
     16          6           0       -1.348123    2.545292    0.089432
     17          1           0       -2.270937    2.613916    0.181644
     18          6           0       -5.922654   -2.194900   -0.454674
     19          1           0       -5.439400   -2.921095   -0.777207
     20          6           0        3.492554    1.241043   -0.681063
     21          1           0        4.327864    1.520302   -1.087090
     22          1           0        2.974587    0.777237   -1.357388
     23          6           0       -6.004739    0.051136    0.372806
     24          1           0       -5.581701    0.849510    0.592931
     25          6           0       -7.296065   -2.297118   -0.322532
     26          1           0       -7.730147   -3.080236   -0.573800
     27          6           0       -0.560740    3.681625    0.132975
     28          1           0       -0.958885    4.513461    0.252207
     29          6           0       -8.022725   -1.235451    0.182420
     30          1           0       -8.943581   -1.308477    0.289566
     31          6           0        4.819738   -0.775885    0.207477
     32          6           0        3.792238    0.282639    0.454327
     33          6           0       -7.372325   -0.062272    0.528447
     34          1           0       -7.859726    0.653430    0.867830
     35          6           0        6.774168   -2.718165   -0.166614
     36          1           0        7.422707   -3.374252   -0.282985
     37          6           0        5.659977   -0.749182   -0.942658
     38          1           0        5.563511   -0.074242   -1.574950
     39          6           0        5.040991   -1.754350    1.143695
     40          1           0        4.545464   -1.750039    1.931100
     41          6           0        6.630404   -1.740692   -1.117914
     42          1           0        7.172991   -1.737376   -1.873296
     43          6           0        5.990290   -2.749224    0.941760
     44          1           0        6.088309   -3.433716    1.563420
 ---------------------------------------------------------------------
 Rotational constants (GHZ):           0.3904051           0.0684510           0.0600603
 Standard basis: 6-311++G(d,p) (5D, 7F)
 There are   724 symmetry adapted cartesian basis functions of A   symmetry.
 There are   698 symmetry adapted basis functions of A   symmetry.
   698 basis functions,  1098 primitive gaussians,   724 cartesian basis functions
    90 alpha electrons       90 beta electrons
       nuclear repulsion energy      1972.1576289992 Hartrees.
 NAtoms=   44 NActive=   44 NUniq=   44 SFac= 1.00D+00 NAtFMM=   60 NAOKFM=F Big=F
 Integral buffers will be    131072 words long.
 Raffenetti 2 integral format.
 Two-electron integral symmetry is turned on.
 R6APFD:  NTU= -4 IXU= 1 FactS= 1.050
 Nuclear repulsion after empirical dispersion term =     1972.1266198942 Hartrees.
 One-electron integrals computed using PRISM.
 NBasis=   698 RedAO= T EigKep=  1.18D-06  NBF=   698
 NBsUse=   691 1.00D-06 EigRej=  7.35D-07 NBFU=   691
 ExpMin= 3.60D-02 ExpMax= 8.59D+03 ExpMxC= 1.30D+03 IAcc=3 IRadAn=         5 AccDes= 0.00D+00
 Harris functional with IExCor= 1009 and IRadAn=       5 diagonalized for initial guess.
 HarFok:  IExCor= 1009 AccDes= 0.00D+00 IRadAn=         5 IDoV= 1 UseB2=F ITyADJ=14
 ICtDFT=  3500011 ScaDFX=  1.000000  1.000000  1.000000  1.000000
 FoFCou: FMM=F IPFlag=           0 FMFlag=      100000 FMFlg1=           0
         NFxFlg=           0 DoJE=T BraDBF=F KetDBF=T FulRan=T
         wScrn=  0.000000 ICntrl=       500 IOpCl=  0 I1Cent=   200000004 NGrid=           0
         NMat0=    1 NMatS0=      1 NMatT0=    0 NMatD0=    1 NMtDS0=    0 NMtDT0=    0
 Petite list used in FoFCou.
 Requested convergence on RMS density matrix=1.00D-08 within  32 cycles.
 Requested convergence on MAX density matrix=1.00D-06.
 Requested convergence on             energy=1.00D-06.
 No special actions if energy rises.
 SCF Done:  E(RM08HX) =  -1112.53273873     A.U. after   17 cycles
            NFock= 17  Conv=0.26D-08     -V/T= 1.9997
 QCSCF skips out because SCF is already converged.

 **********************************************************************

            Population analysis using the SCF Density.

 **********************************************************************

 Orbital symmetries:
       Occupied  (A) (A) (A) (A) (A) (A) (A) (A) (A) (A) (A) (A)
                 (A) (A) (A) (A) (A) (A) (A) (A) (A) (A) (A) (A)
                 (A) (A) (A) (A) (A) (A) (A) (A) (A) (A) (A) (A)
                 (A) (A) (A) (A) (A) (A) (A) (A) (A) (A) (A) (A)
                 (A) (A) (A) (A) (A) (A) (A) (A) (A) (A) (A) (A)
                 (A) (A) (A) (A) (A) (A) (A) (A) (A) (A) (A) (A)
                 (A) (A) (A) (A) (A) (A) (A) (A) (A) (A) (A) (A)
                 (A) (A) (A) (A) (A) (A)
       Virtual   (A) (A) (A) (A) (A) (A) (A) (A) (A) (A) (A) (A)
                 (A) (A) (A) (A) (A) (A) (A) (A) (A) (A) (A) (A)
                 (A) (A) (A) (A) (A) (A) (A) (A) (A) (A) (A) (A)
                 (A) (A) (A) (A) (A) (A) (A) (A) (A) (A) (A) (A)
                 (A) (A) (A) (A) (A) (A) (A) (A) (A) (A) (A) (A)
                 (A) (A) (A) (A) (A) (A) (A) (A) (A) (A) (A) (A)
                 (A) (A) (A) (A) (A) (A) (A) (A) (A) (A) (A) (A)
                 (A) (A) (A) (A) (A) (A) (A) (A) (A) (A) (A) (A)
                 (A) (A) (A) (A) (A) (A) (A) (A) (A) (A) (A) (A)
                 (A) (A) (A) (A) (A) (A) (A) (A) (A) (A) (A) (A)
                 (A) (A) (A) (A) (A) (A) (A) (A) (A) (A) (A) (A)
                 (A) (A) (A) (A) (A) (A) (A) (A) (A) (A) (A) (A)
                 (A) (A) (A) (A) (A) (A) (A) (A) (A) (A) (A) (A)
                 (A) (A) (A) (A) (A) (A) (A) (A) (A) (A) (A) (A)
                 (A) (A) (A) (A) (A) (A) (A) (A) (A) (A) (A) (A)
                 (A) (A) (A) (A) (A) (A) (A) (A) (A) (A) (A) (A)
                 (A) (A) (A) (A) (A) (A) (A) (A) (A) (A) (A) (A)
                 (A) (A) (A) (A) (A) (A) (A) (A) (A) (A) (A) (A)
                 (A) (A) (A) (A) (A) (A) (A) (A) (A) (A) (A) (A)
                 (A) (A) (A) (A) (A) (A) (A) (A) (A) (A) (A) (A)
                 (A) (A) (A) (A) (A) (A) (A) (A) (A) (A) (A) (A)
                 (A) (A) (A) (A) (A) (A) (A) (A) (A) (A) (A) (A)
                 (A) (A) (A) (A) (A) (A) (A) (A) (A) (A) (A) (A)
                 (A) (A) (A) (A) (A) (A) (A) (A) (A) (A) (A) (A)
                 (A) (A) (A) (A) (A) (A) (A) (A) (A) (A) (A) (A)
                 (A) (A) (A) (A) (A) (A) (A) (A) (A) (A) (A) (A)
                 (A) (A) (A) (A) (A) (A) (A) (A) (A) (A) (A) (A)
                 (A) (A) (A) (A) (A) (A) (A) (A) (A) (A) (A) (A)
                 (A) (A) (A) (A) (A) (A) (A) (A) (A) (A) (A) (A)
                 (A) (A) (A) (A) (A) (A) (A) (A) (A) (A) (A) (A)
                 (A) (A) (A) (A) (A) (A) (A) (A) (A) (A) (A) (A)
                 (A) (A) (A) (A) (A) (A) (A) (A) (A) (A) (A) (A)
                 (A) (A) (A) (A) (A) (A) (A) (A) (A) (A) (A) (A)
                 (A) (A) (A) (A) (A) (A) (A) (A) (A) (A) (A) (A)
                 (A) (A) (A) (A) (A) (A) (A) (A) (A) (A) (A) (A)
                 (A) (A) (A) (A) (A) (A) (A) (A) (A) (A) (A) (A)
                 (A) (A) (A) (A) (A) (A) (A) (A) (A) (A) (A) (A)
                 (A) (A) (A) (A) (A) (A) (A) (A) (A) (A) (A) (A)
                 (A) (A) (A) (A) (A) (A) (A) (A) (A) (A) (A) (A)
                 (A) (A) (A) (A) (A) (A) (A) (A) (A) (A) (A) (A)
                 (A) (A) (A) (A) (A) (A) (A) (A) (A) (A) (A) (A)
                 (A) (A) (A) (A) (A) (A) (A) (A) (A) (A) (A) (A)
                 (A) (A) (A) (A) (A) (A) (A) (A) (A) (A) (A) (A)
                 (A) (A) (A) (A) (A) (A) (A) (A) (A) (A) (A) (A)
                 (A) (A) (A) (A) (A) (A) (A) (A) (A) (A) (A) (A)
                 (A) (A) (A) (A) (A) (A) (A) (A) (A) (A) (A) (A)
                 (A) (A) (A) (A) (A) (A) (A) (A) (A) (A) (A) (A)
                 (A) (A) (A) (A) (A) (A) (A) (A) (A) (A) (A) (A)
                 (A) (A) (A) (A) (A) (A) (A) (A) (A) (A) (A) (A)
                 (A) (A) (A) (A) (A) (A) (A) (A) (A) (A) (A) (A)
                 (A)
 The electronic state is 1-A.
 Alpha  occ. eigenvalues --  -19.64717 -19.61234 -19.59177 -10.63391 -10.62092
 Alpha  occ. eigenvalues --  -10.60102 -10.58006 -10.55852 -10.55194 -10.54898
 Alpha  occ. eigenvalues --  -10.54484 -10.53743 -10.53327 -10.53124 -10.52891
 Alpha  occ. eigenvalues --  -10.52746 -10.52662 -10.52607 -10.52462 -10.52384
 Alpha  occ. eigenvalues --  -10.52353 -10.52313 -10.52214 -10.52180 -10.52163
 Alpha  occ. eigenvalues --  -10.52061  -1.20362  -1.17400  -1.15759  -0.99843
 Alpha  occ. eigenvalues --   -0.99353  -0.98535  -0.93162  -0.91421  -0.89108
 Alpha  occ. eigenvalues --   -0.88603  -0.88046  -0.87878  -0.86483  -0.84256
 Alpha  occ. eigenvalues --   -0.77830  -0.75460  -0.74483  -0.74167  -0.73060
 Alpha  occ. eigenvalues --   -0.71725  -0.69707  -0.67792  -0.65747  -0.64729
 Alpha  occ. eigenvalues --   -0.64236  -0.63171  -0.60818  -0.60010  -0.59515
 Alpha  occ. eigenvalues --   -0.59053  -0.56360  -0.55665  -0.55347  -0.54388
 Alpha  occ. eigenvalues --   -0.53871  -0.53134  -0.52758  -0.52491  -0.51796
 Alpha  occ. eigenvalues --   -0.51117  -0.50391  -0.49199  -0.48612  -0.47570
 Alpha  occ. eigenvalues --   -0.46875  -0.46543  -0.45944  -0.45095  -0.44944
 Alpha  occ. eigenvalues --   -0.44031  -0.43862  -0.43158  -0.42561  -0.41855
 Alpha  occ. eigenvalues --   -0.40841  -0.37524  -0.34458  -0.33235  -0.33177
 Alpha  occ. eigenvalues --   -0.32883  -0.32379  -0.31784  -0.29699  -0.28771
 Alpha virt. eigenvalues --   -0.06417  -0.04358  -0.02944  -0.02624  -0.01792
 Alpha virt. eigenvalues --   -0.01510  -0.01327  -0.01086  -0.00872  -0.00429
 Alpha virt. eigenvalues --   -0.00322   0.00088   0.00453   0.00956   0.01154
 Alpha virt. eigenvalues --    0.01657   0.01750   0.02218   0.02496   0.02606
 Alpha virt. eigenvalues --    0.03094   0.03446   0.03749   0.04207   0.04283
 Alpha virt. eigenvalues --    0.04406   0.04673   0.05166   0.05571   0.05770
 Alpha virt. eigenvalues --    0.06065   0.06139   0.06791   0.06943   0.07422
 Alpha virt. eigenvalues --    0.08122   0.08557   0.08752   0.09505   0.09652
 Alpha virt. eigenvalues --    0.09754   0.09959   0.10349   0.10634   0.10753
 Alpha virt. eigenvalues --    0.10880   0.11058   0.11074   0.11438   0.11603
 Alpha virt. eigenvalues --    0.11748   0.11876   0.11951   0.12089   0.12175
 Alpha virt. eigenvalues --    0.12282   0.12441   0.12673   0.12996   0.13236
 Alpha virt. eigenvalues --    0.13492   0.13633   0.13873   0.13972   0.14418
 Alpha virt. eigenvalues --    0.14595   0.14660   0.14944   0.15297   0.15629
 Alpha virt. eigenvalues --    0.16024   0.16089   0.16185   0.16497   0.16876
 Alpha virt. eigenvalues --    0.17287   0.17437   0.17595   0.17763   0.17997
 Alpha virt. eigenvalues --    0.18457   0.18697   0.18912   0.19205   0.19308
 Alpha virt. eigenvalues --    0.19806   0.20178   0.20345   0.20628   0.20796
 Alpha virt. eigenvalues --    0.21092   0.21527   0.22141   0.22248   0.22401
 Alpha virt. eigenvalues --    0.22614   0.22888   0.23211   0.23592   0.23809
 Alpha virt. eigenvalues --    0.24058   0.24665   0.24994   0.25233   0.25398
 Alpha virt. eigenvalues --    0.25852   0.25910   0.26263   0.26540   0.27572
 Alpha virt. eigenvalues --    0.28099   0.28303   0.29098   0.29344   0.29681
 Alpha virt. eigenvalues --    0.29882   0.30243   0.30490   0.30723   0.30912
 Alpha virt. eigenvalues --    0.31633   0.31718   0.32073   0.32240   0.32471
 Alpha virt. eigenvalues --    0.32913   0.33203   0.33703   0.33851   0.34063
 Alpha virt. eigenvalues --    0.34357   0.34689   0.35028   0.35202   0.35767
 Alpha virt. eigenvalues --    0.36142   0.36273   0.36548   0.36806   0.36982
 Alpha virt. eigenvalues --    0.37495   0.37723   0.38536   0.38693   0.39161
 Alpha virt. eigenvalues --    0.39481   0.40039   0.40353   0.40878   0.41132
 Alpha virt. eigenvalues --    0.41422   0.41723   0.42007   0.42663   0.43203
 Alpha virt. eigenvalues --    0.43884   0.44640   0.45212   0.46052   0.47071
 Alpha virt. eigenvalues --    0.47386   0.47825   0.49798   0.51767   0.52794
 Alpha virt. eigenvalues --    0.53064   0.53480   0.54219   0.54733   0.55352
 Alpha virt. eigenvalues --    0.56113   0.56646   0.56888   0.57388   0.57464
 Alpha virt. eigenvalues --    0.58155   0.58408   0.58838   0.59111   0.59319
 Alpha virt. eigenvalues --    0.59849   0.60278   0.60476   0.60615   0.60958
 Alpha virt. eigenvalues --    0.61202   0.61364   0.61806   0.62025   0.62140
 Alpha virt. eigenvalues --    0.62642   0.62768   0.63567   0.64068   0.64976
 Alpha virt. eigenvalues --    0.65754   0.65888   0.66367   0.66919   0.67473
 Alpha virt. eigenvalues --    0.68022   0.68590   0.69030   0.69319   0.69357
 Alpha virt. eigenvalues --    0.70423   0.70717   0.71466   0.71739   0.71906
 Alpha virt. eigenvalues --    0.72486   0.73116   0.73815   0.74096   0.74448
 Alpha virt. eigenvalues --    0.75049   0.75165   0.75609   0.75756   0.76841
 Alpha virt. eigenvalues --    0.78037   0.78262   0.78599   0.79071   0.79226
 Alpha virt. eigenvalues --    0.79436   0.80341   0.81234   0.81487   0.81963
 Alpha virt. eigenvalues --    0.82562   0.83499   0.84250   0.85274   0.86067
 Alpha virt. eigenvalues --    0.86225   0.86958   0.87110   0.87700   0.88192
 Alpha virt. eigenvalues --    0.88536   0.89070   0.89180   0.89464   0.90073
 Alpha virt. eigenvalues --    0.90457   0.90793   0.91799   0.91927   0.92618
 Alpha virt. eigenvalues --    0.93984   0.94866   0.95701   0.95837   0.96402
 Alpha virt. eigenvalues --    0.96897   0.97330   0.97621   0.98077   0.98497
 Alpha virt. eigenvalues --    0.99033   0.99601   1.00113   1.00922   1.01706
 Alpha virt. eigenvalues --    1.02592   1.02975   1.04099   1.04372   1.05253
 Alpha virt. eigenvalues --    1.05500   1.06074   1.07260   1.07845   1.08625
 Alpha virt. eigenvalues --    1.09260   1.09829   1.10118   1.10793   1.11500
 Alpha virt. eigenvalues --    1.12540   1.12604   1.12896   1.13338   1.13764
 Alpha virt. eigenvalues --    1.14102   1.15354   1.15825   1.16622   1.17173
 Alpha virt. eigenvalues --    1.17965   1.18600   1.19483   1.19964   1.20761
 Alpha virt. eigenvalues --    1.21722   1.22389   1.22796   1.23164   1.24435
 Alpha virt. eigenvalues --    1.25895   1.28053   1.30103   1.30809   1.31425
 Alpha virt. eigenvalues --    1.33376   1.33885   1.35777   1.36295   1.37610
 Alpha virt. eigenvalues --    1.39558   1.42651   1.43654   1.45480   1.45839
 Alpha virt. eigenvalues --    1.48876   1.51550   1.52312   1.52444   1.53021
 Alpha virt. eigenvalues --    1.53647   1.54755   1.55947   1.56271   1.56349
 Alpha virt. eigenvalues --    1.56928   1.57210   1.57585   1.58790   1.58995
 Alpha virt. eigenvalues --    1.60212   1.60441   1.62657   1.63479   1.64089
 Alpha virt. eigenvalues --    1.64460   1.64529   1.64802   1.65113   1.65446
 Alpha virt. eigenvalues --    1.67023   1.68205   1.69481   1.69945   1.70695
 Alpha virt. eigenvalues --    1.70849   1.71006   1.71767   1.72324   1.72943
 Alpha virt. eigenvalues --    1.73929   1.74732   1.75119   1.77417   1.78380
 Alpha virt. eigenvalues --    1.79650   1.80153   1.80793   1.81541   1.82519
 Alpha virt. eigenvalues --    1.82688   1.83513   1.84483   1.84892   1.86342
 Alpha virt. eigenvalues --    1.86771   1.87332   1.87695   1.89011   1.89179
 Alpha virt. eigenvalues --    1.89573   1.90194   1.90743   1.90999   1.91300
 Alpha virt. eigenvalues --    1.92311   1.95424   1.96816   1.97008   1.97378
 Alpha virt. eigenvalues --    1.98072   1.98933   1.99081   1.99811   2.00085
 Alpha virt. eigenvalues --    2.00562   2.01244   2.01755   2.02403   2.03084
 Alpha virt. eigenvalues --    2.03741   2.04102   2.05467   2.05957   2.06543
 Alpha virt. eigenvalues --    2.08360   2.08819   2.10240   2.10871   2.12717
 Alpha virt. eigenvalues --    2.13524   2.14500   2.14591   2.15679   2.16812
 Alpha virt. eigenvalues --    2.17583   2.17779   2.19982   2.20653   2.21974
 Alpha virt. eigenvalues --    2.22786   2.23199   2.24917   2.26005   2.27326
 Alpha virt. eigenvalues --    2.29263   2.30746   2.31421   2.32633   2.33556
 Alpha virt. eigenvalues --    2.35153   2.36604   2.38010   2.38643   2.39086
 Alpha virt. eigenvalues --    2.39768   2.40678   2.41030   2.42199   2.42798
 Alpha virt. eigenvalues --    2.43894   2.46477   2.47312   2.48614   2.49069
 Alpha virt. eigenvalues --    2.50333   2.50841   2.51673   2.52248   2.55975
 Alpha virt. eigenvalues --    2.57222   2.58342   2.59989   2.62146   2.63923
 Alpha virt. eigenvalues --    2.70904   2.73510   2.73928   2.75579   2.76311
 Alpha virt. eigenvalues --    2.76625   2.76785   2.77813   2.78887   2.79506
 Alpha virt. eigenvalues --    2.80199   2.82001   2.84304   2.85051   2.85434
 Alpha virt. eigenvalues --    2.86898   2.87636   2.88807   2.89466   2.89916
 Alpha virt. eigenvalues --    2.90356   2.91036   2.91921   2.93249   2.94431
 Alpha virt. eigenvalues --    2.94778   2.95481   2.95819   2.96833   2.97199
 Alpha virt. eigenvalues --    2.97480   2.99369   2.99802   2.99992   3.00828
 Alpha virt. eigenvalues --    3.01531   3.01597   3.02534   3.02648   3.02740
 Alpha virt. eigenvalues --    3.02904   3.03347   3.04170   3.05029   3.06047
 Alpha virt. eigenvalues --    3.06842   3.08817   3.10277   3.10769   3.11373
 Alpha virt. eigenvalues --    3.12933   3.14754   3.15661   3.16109   3.17920
 Alpha virt. eigenvalues --    3.18156   3.18259   3.19845   3.22384   3.24973
 Alpha virt. eigenvalues --    3.25319   3.26684   3.27547   3.28633   3.30432
 Alpha virt. eigenvalues --    3.32255   3.32905   3.33758   3.35567   3.40976
 Alpha virt. eigenvalues --    3.41894   3.42998   3.44191   3.44302   3.47921
 Alpha virt. eigenvalues --    3.48495   3.49159   3.50063   3.52252   3.52547
 Alpha virt. eigenvalues --    3.55922   3.63217   3.66221   3.67429   3.68624
 Alpha virt. eigenvalues --    3.71324   3.71520   3.71815   3.72519   3.75345
 Alpha virt. eigenvalues --    3.76327   3.80044   3.83430   3.86732   3.87480
 Alpha virt. eigenvalues --    3.88755   3.89559   3.91158   4.09057   4.18562
 Alpha virt. eigenvalues --    4.20993   4.25542   4.28458   4.29837   4.32254
 Alpha virt. eigenvalues --    4.32838   4.33408   4.34573   4.36321   4.38337
 Alpha virt. eigenvalues --    4.40201   4.43370   4.43850   4.44353   4.46152
 Alpha virt. eigenvalues --    4.51104   4.61379   4.75146   4.92251   4.94067
 Alpha virt. eigenvalues --    4.95811   5.18227   5.19990   5.24389   5.40571
 Alpha virt. eigenvalues --    5.44225   5.56200   5.87382   5.91073   5.98035
 Alpha virt. eigenvalues --   23.81519  23.84960  23.88315  23.93725  23.94771
 Alpha virt. eigenvalues --   24.04857  24.07726  24.08866  24.12174  24.16969
 Alpha virt. eigenvalues --   24.17997  24.19914  24.20779  24.26759  24.27605
 Alpha virt. eigenvalues --   24.27708  24.29748  24.30021  24.30724  24.40065
 Alpha virt. eigenvalues --   24.40828  24.42803  24.43610  49.99510  50.03954
 Alpha virt. eigenvalues --   50.07425
          Condensed to atoms (all electrons):
               1          2          3          4          5          6
     1  O    7.977927   0.025688   0.411011  -0.000581  -0.015492  -0.005945
     2  O    0.025688   7.775415  -0.030493  -0.000518  -0.010528   0.101920
     3  C    0.411011  -0.030493  14.526033   0.119651  -3.928165  -0.538445
     4  O   -0.000581  -0.000518   0.119651   7.882923  -0.178336   0.276429
     5  C   -0.015492  -0.010528  -3.928165  -0.178336  33.062249   4.744527
     6  C   -0.005945   0.101920  -0.538445   0.276429   4.744527  12.176144
     7  H   -0.019373  -0.011008  -0.229457  -0.022542   0.702245   0.756495
     8  C   -0.028855  -0.001704   0.612507  -0.317044 -12.532047  -2.606199
     9  H   -0.000453   0.000063  -0.050620   0.010507  -0.247414  -0.082303
    10  C   -0.000214   0.000188   0.146047   0.163501   1.897515   1.172070
    11  C   -0.051338  -0.034060  -0.713526   0.477366  -5.374729  -8.478919
    12  C   -0.402600   0.019818  -3.860926   0.018492   1.293374  -0.286608
    13  H   -0.013755  -0.001081  -0.006963   0.000457   0.001622   0.004105
    14  C   -0.005454  -0.000027   0.484904   0.171122  -4.995291  -0.002673
    15  H    0.000008  -0.000092  -0.014527  -0.044772  -0.334647  -0.136574
    16  C    0.140031   0.010033   1.641120  -0.383920  -4.225428   0.863134
    17  H    0.002799  -0.000330   0.100352  -0.003365  -0.060491  -0.047714
    18  C   -0.000045   0.000012   0.023510   0.037536  -0.109175   0.181112
    19  H   -0.000001   0.000002   0.001698   0.004608   0.051876   0.016885
    20  C    0.347982  -0.001126  -0.256571  -0.007999  -0.104391   0.051341
    21  H   -0.079238  -0.010811   0.090709   0.000312  -0.049675  -0.076430
    22  H   -0.027301   0.013746   0.167527  -0.002141  -0.030276  -0.018338
    23  C   -0.000064  -0.000027   0.012672  -0.008443   0.160383  -0.068915
    24  H    0.000005   0.000004   0.004867   0.002376   0.139040   0.042301
    25  C    0.000000  -0.000000  -0.001018   0.000779  -0.020985  -0.004455
    26  H    0.000000   0.000000  -0.000063  -0.000058  -0.004046  -0.000643
    27  C   -0.038561   0.000499  -1.491958  -0.047920  -4.730556  -1.705215
    28  H   -0.005589   0.000270  -0.021156   0.000272   0.059461   0.050880
    29  C   -0.000001  -0.000000   0.001937   0.001332   0.084660   0.016863
    30  H   -0.000000   0.000000   0.000046   0.000011   0.003111   0.000551
    31  C    0.008488   0.090139  -1.009791  -0.000453  -0.189428   0.799779
    32  C   -0.175145   0.236495   0.820840   0.004993  -0.268239  -1.194574
    33  C   -0.000002   0.000000  -0.008581  -0.006350  -0.678365  -0.088873
    34  H    0.000000   0.000000  -0.000202  -0.000112  -0.013346  -0.001796
    35  C   -0.004148   0.004478  -0.062328   0.000169  -0.004396   0.010345
    36  H   -0.000136   0.000136  -0.001975   0.000003  -0.000015   0.000329
    37  C   -0.090565  -0.154204  -0.792522   0.002111   0.058162   0.070134
    38  H   -0.006015   0.000922  -0.068330   0.000011   0.011003   0.031149
    39  C    0.035831   0.105123   0.108529  -0.002736  -0.156067  -0.040613
    40  H   -0.000375  -0.012530  -0.017006   0.000017  -0.004012   0.006572
    41  C   -0.010637  -0.059050  -0.148356  -0.000481  -0.004492  -0.041655
    42  H    0.000624  -0.000168   0.003459  -0.000008  -0.000390  -0.000149
    43  C    0.000124   0.060122   0.123097  -0.000459  -0.013926  -0.047932
    44  H    0.000142   0.002075   0.002588  -0.000014   0.000024  -0.000416
               7          8          9         10         11         12
     1  O   -0.019373  -0.028855  -0.000453  -0.000214  -0.051338  -0.402600
     2  O   -0.011008  -0.001704   0.000063   0.000188  -0.034060   0.019818
     3  C   -0.229457   0.612507  -0.050620   0.146047  -0.713526  -3.860926
     4  O   -0.022542  -0.317044   0.010507   0.163501   0.477366   0.018492
     5  C    0.702245 -12.532047  -0.247414   1.897515  -5.374729   1.293374
     6  C    0.756495  -2.606199  -0.082303   1.172070  -8.478919  -0.286608
     7  H    0.864142  -0.688679  -0.011354   0.033245  -0.702806  -0.148624
     8  C   -0.688679  22.612250   0.892622  -5.356396   1.211953  -0.218138
     9  H   -0.011354   0.892622   0.889570   0.273398   0.144211   0.045133
    10  C    0.033245  -5.356396   0.273398  20.159998  -1.015674  -0.070275
    11  C   -0.702806   1.211953   0.144211  -1.015674  28.632124   0.430104
    12  C   -0.148624  -0.218138   0.045133  -0.070275   0.430104  12.049067
    13  H    0.006418  -0.023978  -0.002201  -0.001456  -0.022385   0.475536
    14  C   -0.220152   8.643098   0.140642  -5.336658  -6.225478  -0.003499
    15  H   -0.006115   0.362742  -0.028843  -0.556860   0.154472  -0.001492
    16  C    0.751423  -4.910690  -0.434702  -0.696323  -0.653427  -5.150456
    17  H    0.011760  -0.262896  -0.099337  -0.098491   0.124619  -0.116572
    18  C   -0.002166  -3.476457   0.228522   2.180160  -1.367058  -0.002632
    19  H    0.000345  -0.193818   0.005840   0.089981   0.001852  -0.000273
    20  C    0.016285  -0.047485  -0.000669   0.009734  -0.358250  -1.062387
    21  H   -0.002852   0.009683   0.000173   0.000388   0.013960   0.023979
    22  H   -0.094608   0.043711   0.001160   0.000703   0.024475   0.031476
    23  C   -0.018913   1.346311  -0.530751  -5.112255  -1.037231   0.003916
    24  H    0.000998  -0.157054  -0.068906  -0.111669  -0.075769  -0.004597
    25  C    0.000488   0.262698  -0.016279  -0.682927   0.106430   0.000984
    26  H    0.000023   0.015770   0.001081   0.018092   0.002326   0.000008
    27  C   -0.032829   0.922488   0.026157  -0.202022   1.611663   2.392803
    28  H    0.001827   0.034289   0.010291   0.010544  -0.034508  -0.042034
    29  C   -0.000586  -0.421421  -0.044182  -0.720456  -0.217647  -0.000705
    30  H   -0.000006  -0.020258  -0.002750  -0.003766  -0.001689  -0.000024
    31  C   -0.285705   0.062456   0.000746  -0.003263   0.417688   0.399737
    32  C    0.226074  -0.054301   0.000698  -0.001002  -0.122216   0.254643
    33  C   -0.002344  -0.167909   0.114199  -1.409650  -0.187372   0.008114
    34  H    0.000016   0.001442   0.011438   0.098691   0.010491   0.000177
    35  C    0.007847  -0.002234  -0.000051   0.000052  -0.015197   0.004301
    36  H    0.000118  -0.000040  -0.000001   0.000001  -0.000281   0.000039
    37  C    0.135170  -0.042596  -0.000608  -0.000540  -0.100138  -0.040134
    38  H    0.008119  -0.003182  -0.000051  -0.000022  -0.011527  -0.002837
    39  C   -0.084085   0.017250   0.000319   0.001185  -0.009547   0.106911
    40  H   -0.006721  -0.000560  -0.000053   0.000039  -0.000387  -0.000419
    41  C   -0.017899   0.001628   0.000099  -0.000088   0.026823   0.006383
    42  H   -0.000882   0.000144   0.000003  -0.000002   0.001174   0.000311
    43  C   -0.005260   0.009090   0.000221  -0.000099   0.038649   0.005250
    44  H   -0.000214   0.000240   0.000006  -0.000011   0.001021   0.000029
              13         14         15         16         17         18
     1  O   -0.013755  -0.005454   0.000008   0.140031   0.002799  -0.000045
     2  O   -0.001081  -0.000027  -0.000092   0.010033  -0.000330   0.000012
     3  C   -0.006963   0.484904  -0.014527   1.641120   0.100352   0.023510
     4  O    0.000457   0.171122  -0.044772  -0.383920  -0.003365   0.037536
     5  C    0.001622  -4.995291  -0.334647  -4.225428  -0.060491  -0.109175
     6  C    0.004105  -0.002673  -0.136574   0.863134  -0.047714   0.181112
     7  H    0.006418  -0.220152  -0.006115   0.751423   0.011760  -0.002166
     8  C   -0.023978   8.643098   0.362742  -4.910690  -0.262896  -3.476457
     9  H   -0.002201   0.140642  -0.028843  -0.434702  -0.099337   0.228522
    10  C   -0.001456  -5.336658  -0.556860  -0.696323  -0.098491   2.180160
    11  C   -0.022385  -6.225478   0.154472  -0.653427   0.124619  -1.367058
    12  C    0.475536  -0.003499  -0.001492  -5.150456  -0.116572  -0.002632
    13  H    0.445453  -0.002088   0.000092  -0.056262   0.006624  -0.000114
    14  C   -0.002088  16.918911   0.749715  -1.969677  -0.115459  -4.699331
    15  H    0.000092   0.749715   0.505431   0.120910   0.008351  -0.415537
    16  C   -0.056262  -1.969677   0.120910  23.653610   1.011036  -0.178406
    17  H    0.006624  -0.115459   0.008351   1.011036   0.596961  -0.030102
    18  C   -0.000114  -4.699331  -0.415537  -0.178406  -0.030102  20.198365
    19  H   -0.000007  -0.265920  -0.038327  -0.019322  -0.000967   0.876652
    20  C   -0.001530  -0.003288  -0.000855   0.487356   0.001889   0.000361
    21  H   -0.002327   0.003736  -0.000053  -0.014758  -0.000631   0.000084
    22  H   -0.002839   0.010880  -0.000147  -0.081689  -0.002876   0.000206
    23  C    0.000263   1.566296   0.226111  -0.293917   0.035268  -8.134253
    24  H    0.000034  -0.151751   0.002466  -0.002773  -0.001235  -0.092034
    25  C    0.000022   0.286253   0.069241   0.049343   0.004254  -0.922853
    26  H    0.000000   0.046340   0.004454   0.001654   0.000031  -0.111140
    27  C   -0.018120   0.359071   0.035143  -1.663464  -0.146958   0.008496
    28  H   -0.021818   0.004846  -0.000790  -0.087252  -0.037762   0.001418
    29  C   -0.000004  -0.845387  -0.031730  -0.045664  -0.001761  -0.481817
    30  H   -0.000000  -0.045645  -0.001423  -0.001311  -0.000015  -0.008013
    31  C   -0.009105   0.000310  -0.000247  -0.043436  -0.000364  -0.000023
    32  C    0.009513   0.012735   0.001274  -0.050924   0.004907   0.000201
    33  C   -0.000046   1.299054   0.059720   0.107591  -0.013422   2.471473
    34  H   -0.000002   0.013333  -0.000401   0.003449   0.000010   0.097936
    35  C    0.000157   0.000040  -0.000088   0.002635   0.000075   0.000000
    36  H    0.000001   0.000000  -0.000002   0.000064   0.000001   0.000000
    37  C    0.003662  -0.008719   0.000348   0.070784   0.002092  -0.000155
    38  H    0.000352  -0.000876  -0.000015   0.006494   0.000123  -0.000012
    39  C   -0.001435   0.010998  -0.001030  -0.037057  -0.000898   0.000249
    40  H   -0.000152   0.000157  -0.000009   0.002328   0.000054  -0.000004
    41  C   -0.000716  -0.000204   0.000152  -0.003141  -0.000060  -0.000003
    42  H   -0.000033   0.000018   0.000003  -0.000254  -0.000006   0.000000
    43  C    0.000499   0.001406   0.000047  -0.009733  -0.000197   0.000045
    44  H   -0.000000   0.000005   0.000007  -0.000213  -0.000007   0.000001
              19         20         21         22         23         24
     1  O   -0.000001   0.347982  -0.079238  -0.027301  -0.000064   0.000005
     2  O    0.000002  -0.001126  -0.010811   0.013746  -0.000027   0.000004
     3  C    0.001698  -0.256571   0.090709   0.167527   0.012672   0.004867
     4  O    0.004608  -0.007999   0.000312  -0.002141  -0.008443   0.002376
     5  C    0.051876  -0.104391  -0.049675  -0.030276   0.160383   0.139040
     6  C    0.016885   0.051341  -0.076430  -0.018338  -0.068915   0.042301
     7  H    0.000345   0.016285  -0.002852  -0.094608  -0.018913   0.000998
     8  C   -0.193818  -0.047485   0.009683   0.043711   1.346311  -0.157054
     9  H    0.005840  -0.000669   0.000173   0.001160  -0.530751  -0.068906
    10  C    0.089981   0.009734   0.000388   0.000703  -5.112255  -0.111669
    11  C    0.001852  -0.358250   0.013960   0.024475  -1.037231  -0.075769
    12  C   -0.000273  -1.062387   0.023979   0.031476   0.003916  -0.004597
    13  H   -0.000007  -0.001530  -0.002327  -0.002839   0.000263   0.000034
    14  C   -0.265920  -0.003288   0.003736   0.010880   1.566296  -0.151751
    15  H   -0.038327  -0.000855  -0.000053  -0.000147   0.226111   0.002466
    16  C   -0.019322   0.487356  -0.014758  -0.081689  -0.293917  -0.002773
    17  H   -0.000967   0.001889  -0.000631  -0.002876   0.035268  -0.001235
    18  C    0.876652   0.000361   0.000084   0.000206  -8.134253  -0.092034
    19  H    0.477719   0.000036   0.000004   0.000014  -0.111409   0.001761
    20  C    0.000036  12.151212   0.168225   0.358602  -0.002082  -0.000003
    21  H    0.000004   0.168225   0.502368  -0.015005   0.000019   0.000009
    22  H    0.000014   0.358602  -0.015005   0.527275   0.000430   0.000010
    23  C   -0.111409  -0.002082   0.000019   0.000430  22.023965   1.021697
    24  H    0.001761  -0.000003   0.000009   0.000010   1.021697   0.555742
    25  C   -0.147178  -0.000010  -0.000001  -0.000004   0.109354  -0.001335
    26  H   -0.014951   0.000001  -0.000000  -0.000001  -0.032752  -0.002590
    27  C   -0.003298  -0.236196   0.016787   0.013985   0.007973  -0.024839
    28  H    0.000062  -0.004191   0.000413   0.001965  -0.002293   0.000861
    29  C    0.054432   0.000001   0.000002   0.000015   2.011774   0.124332
    30  H    0.004119   0.000000   0.000000   0.000000   0.113122   0.009693
    31  C    0.000016  -0.435716  -0.134632   0.069169   0.000145   0.000003
    32  C   -0.000037  -2.523903   0.360503  -0.056917   0.000579  -0.000129
    33  C   -0.007271  -0.000202  -0.000004  -0.000006  -6.037590  -0.320325
    34  H    0.000569   0.000002  -0.000000  -0.000001  -0.296987  -0.031543
    35  C    0.000003  -0.283314  -0.012524  -0.024499  -0.000001   0.000001
    36  H    0.000000  -0.007016  -0.000854  -0.000552  -0.000000   0.000000
    37  C   -0.000015   0.156670  -0.016252  -0.323128  -0.000027  -0.000018
    38  H   -0.000000   0.092369  -0.043348  -0.017772  -0.000012  -0.000001
    39  C    0.000047  -0.952409  -0.011161   0.109046   0.000028   0.000022
    40  H    0.000002  -0.010479  -0.000629   0.001646   0.000002   0.000004
    41  C   -0.000005  -1.187790   0.002866  -0.041605   0.000001  -0.000004
    42  H   -0.000000  -0.000037   0.005017   0.001262   0.000000  -0.000000
    43  C   -0.000000   0.135743   0.002974   0.021992   0.000005  -0.000006
    44  H   -0.000000   0.011423  -0.000188   0.000480   0.000000  -0.000000
              25         26         27         28         29         30
     1  O    0.000000   0.000000  -0.038561  -0.005589  -0.000001  -0.000000
     2  O   -0.000000   0.000000   0.000499   0.000270  -0.000000   0.000000
     3  C   -0.001018  -0.000063  -1.491958  -0.021156   0.001937   0.000046
     4  O    0.000779  -0.000058  -0.047920   0.000272   0.001332   0.000011
     5  C   -0.020985  -0.004046  -4.730556   0.059461   0.084660   0.003111
     6  C   -0.004455  -0.000643  -1.705215   0.050880   0.016863   0.000551
     7  H    0.000488   0.000023  -0.032829   0.001827  -0.000586  -0.000006
     8  C    0.262698   0.015770   0.922488   0.034289  -0.421421  -0.020258
     9  H   -0.016279   0.001081   0.026157   0.010291  -0.044182  -0.002750
    10  C   -0.682927   0.018092  -0.202022   0.010544  -0.720456  -0.003766
    11  C    0.106430   0.002326   1.611663  -0.034508  -0.217647  -0.001689
    12  C    0.000984   0.000008   2.392803  -0.042034  -0.000705  -0.000024
    13  H    0.000022   0.000000  -0.018120  -0.021818  -0.000004  -0.000000
    14  C    0.286253   0.046340   0.359071   0.004846  -0.845387  -0.045645
    15  H    0.069241   0.004454   0.035143  -0.000790  -0.031730  -0.001423
    16  C    0.049343   0.001654  -1.663464  -0.087252  -0.045664  -0.001311
    17  H    0.004254   0.000031  -0.146958  -0.037762  -0.001761  -0.000015
    18  C   -0.922853  -0.111140   0.008496   0.001418  -0.481817  -0.008013
    19  H   -0.147178  -0.014951  -0.003298   0.000062   0.054432   0.004119
    20  C   -0.000010   0.000001  -0.236196  -0.004191   0.000001   0.000000
    21  H   -0.000001  -0.000000   0.016787   0.000413   0.000002   0.000000
    22  H   -0.000004  -0.000001   0.013985   0.001965   0.000015   0.000000
    23  C    0.109354  -0.032752   0.007973  -0.002293   2.011774   0.113122
    24  H   -0.001335  -0.002590  -0.024839   0.000861   0.124332   0.009693
    25  C    6.799467   0.470258   0.006742  -0.000119  -0.099143  -0.078572
[...]
 010384,-0.00037398,0.00044471,0.00007497,0.00008688,-0.00003475,-0.000
 07939,0.00000055,0.00001734,-0.00005685,0.00013543,-0.00002081,-0.0000
 9790,-0.00002516,0.00002121,0.00006622,0.00008795,-0.00004872,-0.00005
 577,-0.00000890,-0.00000008,0.00000371,0.00000854,0.00000341,-0.000002
 66,-0.00017981,0.00010587,0.00014553,0.00008239,-0.00008083,0.00001801
 ,-0.00000060,0.00000991,-0.00000871,-0.00004214,0.00000457,0.00003274,
 -0.00000339,0.00000064,0.00000052,0.00005210,-0.00004990,0.00003516,0.
 00000561,-0.00001001,0.00001174,0.00000278,-0.00001117,0.00001171,-0.0
 0000276,0.00000060,0.00000105,-0.00064609,0.00064230,0.00005578,0.0000
 9925,-0.00041423,-0.00027414,-0.00019521,0.00032614,-0.00006251,0.0000
 0632,0.00000364,-0.00000470,-0.00000484,-0.00000096,-0.00000263,0.0000
 0903,0.00001123,0.00000218,0.00000121,-0.00000384,-0.00000179,-0.00002
 297,-0.00001729,0.00000514,0.00000663,-0.00001235,0.00000613,0.0000042
 5,-0.00001106,0.00000285,0.00000142,-0.00000111,0.00000001,0.04417321,
 0.02086170,-0.00543218,-0.00214550,-0.00207226,-0.00593188,0.00000354,
 -0.00000177,-0.00000952,0.00000037,-0.00000194,0.00000198,-0.27364492,
 -0.12896342,0.04837825,0.00213224,-0.00001968,-0.00192943,-0.12204395,
 -0.01683668,-0.02269772,0.00061978,-0.01457168,0.02365709,-0.02600480,
 -0.02406791,0.02604816,-0.00008499,-0.00006161,0.00115668,0.62698893,0
 .00013161,-0.00001645,0.00018315,0.00127191,-0.00175282,0.00135095,-0.
 00007226,0.00026627,-0.00003454,0.00007094,-0.00001477,-0.00001814,-0.
 00003177,0.00001154,-0.00004741,0.00001909,-0.00006614,-0.00004549,0.0
 0002601,0.00006660,0.00005210,0.00006503,-0.00003639,-0.00004245,-0.00
 000260,-0.00000098,0.00000594,-0.00000391,-0.00001848,0.00000270,-0.00
 015741,0.00004944,0.00004552,-0.00001550,-0.00002496,-0.00000737,0.000
 00280,0.00000677,0.00000149,-0.00000693,0.00005008,0.00001663,-0.00000
 735,0.00000130,0.00000161,0.00001577,-0.00002448,0.00005336,-0.0000004
 1,-0.00000855,0.00000387,0.00001257,0.00000864,0.00000447,-0.00000419,
 -0.00000139,0.00000221,0.00087610,-0.00122548,-0.00089954,-0.00014699,
 0.00028202,-0.00035938,-0.00037424,-0.00001910,0.00026516,0.00000192,-
 0.00000126,-0.00000290,-0.00000442,0.00000007,-0.00000231,-0.00000865,
 -0.00001327,0.00000658,0.00000211,-0.00000046,-0.00000203,0.00002529,-
 0.00001581,-0.00000106,0.00000389,-0.00000313,0.00000274,0.00001446,0.
 00000547,-0.00000003,0.00000029,-0.00000252,0.00000017,0.04462897,0.01
 767871,0.02515049,-0.00172651,0.00785905,-0.00007894,0.00000222,-0.000
 00391,-0.00000683,0.00000095,-0.00000129,0.00000209,-0.09487274,-0.140
 30034,0.05713845,-0.01344015,-0.00320372,0.00140249,-0.05022958,-0.143
 21176,0.10128630,-0.00096243,-0.00320950,0.01350191,-0.02541171,-0.032
 34985,0.02566427,0.00006946,-0.00130307,0.00013513,0.17121989,0.320026
 03,0.00021342,0.00010876,0.00040644,-0.00002981,0.00090094,-0.00357820
 ,-0.00008187,-0.00005580,-0.00000936,0.00001513,-0.00002973,0.00012739
 ,0.00000412,-0.00000795,0.00004819,-0.00001430,0.00000729,0.00001159,-
 0.00007024,-0.00002011,-0.00011464,-0.00000737,-0.00000718,0.00001314,
 0.00000812,-0.00000258,0.00000312,-0.00000302,-0.00000713,0.00000474,0
 .00003257,-0.00000559,-0.00014267,-0.00001031,-0.00002644,0.00001170,-
 0.00000512,-0.00000477,0.00000099,0.00001023,0.00001446,-0.00000973,-0
 .00000234,0.00000470,0.00000080,-0.00001042,0.00000366,-0.00001240,-0.
 00000341,-0.00000107,-0.00000579,0.00000204,0.00000724,-0.00000334,0.0
 0000085,0.00000199,0.00000130,-0.00015747,-0.00095308,-0.00057182,0.00
 030648,0.00015739,0.00002597,0.00021511,0.00020929,0.00047910,-0.00000
 106,-0.00000445,-0.00000136,-0.00000013,0.00000083,0.00000012,-0.00000
 799,-0.00001186,0.00000368,0.00000088,0.00000262,-0.00000023,0.0000059
 9,0.00001033,0.00001394,0.00000118,0.00000039,0.00000171,0.00000355,0.
 00000594,-0.00000150,0.00000027,-0.00000015,0.00000014,-0.05099773,0.0
 0283084,-0.04362328,-0.00645692,-0.00066733,0.00379362,0.00000005,-0.0
 0000079,0.00000151,0.00000104,0.00000041,0.00000034,-0.01461326,0.0259
 8381,-0.12526139,0.02323850,0.01378872,-0.00016041,0.03957996,0.132491
 21,-0.27132801,-0.00160658,0.00090782,0.00105264,0.02839557,0.02672497
 ,-0.02923378,0.00092080,0.00005469,-0.00042355,0.13147014,-0.18844898,
 0.60432368,-0.00004561,0.00008366,-0.00005594,-0.00008541,0.00010214,0
 .00005722,0.00006570,-0.00007147,0.00000832,-0.00000190,0.00000467,0.0
 0004189,-0.00000653,-0.00000281,0.00001300,-0.00001000,0.00001360,0.00
 001591,0.00000452,-0.00000627,-0.00001336,-0.00001112,0.00000580,0.000
 01158,0.00000197,-0.00000194,0.00000074,0.00000009,0.00000008,0.000001
 87,0.00002556,-0.00001055,-0.00004911,-0.00001301,0.00000937,-0.000007
 23,-0.00000018,-0.00000166,0.00000192,0.00000498,-0.00000171,-0.000008
 63,-0.00000158,-0.00000031,-0.00000080,-0.00000752,0.00000889,-0.00000
 444,-0.00000098,0.00000111,-0.00000214,-0.00000240,0.00000155,-0.00000
 376,0.00000024,-0.00000022,0.00000020,0.00002910,-0.00000703,0.0000239
 6,-0.00000418,0.00001662,0.00000448,0.00000297,-0.00001370,-0.00002275
 ,0.00000064,0.00000040,0.00000020,-0.00000010,-0.00000048,0.00000091,0
 .00000057,-0.00000071,0.00000023,-0.00000090,0.00000060,0.00000027,0.0
 0000265,0.00000080,0.00000087,-0.00000105,0.00000105,-0.00000050,-0.00
 000081,0.00000112,-0.00000069,-0.00000017,-0.00000012,0.00000004,0.002
 55007,-0.00254810,0.00008351,0.00033212,-0.00027806,0.00030941,-0.0000
 0024,0.00000043,0.00000207,0.00000010,-0.00000029,0.00000013,-0.013501
 86,0.00220770,-0.01962482,-0.00018534,0.00128439,0.00111625,0.00628014
 ,-0.00093203,0.00462453,-0.00011862,0.00167590,0.00054767,-0.00029532,
 -0.00022607,0.00119054,-0.00015241,0.00034719,0.00010873,-0.20402388,-
 0.00494521,-0.14302703,0.21222817,-0.00001296,-0.00008680,0.00002649,0
 .00020542,-0.00041891,0.00042552,-0.00004044,0.00007822,-0.00000395,-0
 .00001219,0.00001077,-0.00006752,0.00000481,-0.00000278,-0.00001854,0.
 00000457,-0.00001664,-0.00001661,-0.00000277,0.00000652,0.00002144,-0.
 00000434,0.00000403,-0.00000414,-0.00000315,0.00000134,-0.00000171,-0.
 00000022,0.00000175,-0.00000323,-0.00000219,-0.00000606,0.00007326,0.0
 0000330,-0.00001376,0.00000419,0.00000208,0.00000296,-0.00000103,0.000
 00396,-0.00000453,0.00000434,0.00000244,-0.00000130,-0.00000035,0.0000
 0778,-0.00000803,0.00000248,0.00000066,-0.00000008,0.00000186,0.000001
 58,-0.00000064,0.00000235,0.00000034,-0.00000050,-0.00000112,0.0000278
 0,0.00003481,0.00002305,-0.00001125,0.00000895,0.00000668,0.00001105,-
 0.00000866,0.00000024,-0.00000178,0.00000021,0.00000147,0.00000080,0.0
 0000005,-0.00000003,-0.00000037,0.00000018,-0.00000236,0.00000047,-0.0
 0000025,0.00000038,-0.00000158,0.00000169,0.00000040,0.00000043,-0.000
 00053,-0.00000050,-0.00000111,-0.00000015,0.00000024,-0.00000039,0.000
 00045,-0.00000009,-0.00298991,0.00318859,0.00527626,0.00056226,0.00072
 008,0.00012752,0.00000027,0.00000069,0.00000002,-0.00000057,0.00000026
 ,-0.00000066,-0.01142085,0.00410571,-0.01169749,0.00162280,-0.00243032
 ,-0.00142950,0.01267282,0.00349381,0.01098062,0.00139116,-0.00244831,-
 0.00176041,-0.00015235,-0.00126571,0.00006598,0.00036293,-0.00060800,-
 0.00035446,-0.00505786,-0.04490176,0.00886696,0.00840084,0.03715607,0.
 00001810,0.00017346,-0.00007480,-0.00013436,0.00023102,-0.00097557,0.0
 0006426,-0.00012104,-0.00000481,-0.00001443,0.00002144,0.00001010,0.00
 001044,-0.00000864,0.00001116,-0.00001853,0.00002790,0.00003605,-0.000
 00201,-0.00002587,-0.00001850,-0.00002496,0.00001317,0.00001513,0.0000
 0079,-0.00000163,-0.00000115,-0.00000075,0.00000251,-0.00000056,0.0000
 4937,-0.00002541,-0.00001714,-0.00000323,0.00001759,0.00000320,-0.0000
 0231,-0.00000311,-0.00000071,0.00000993,-0.00000870,-0.00000788,0.0000
 0006,-0.00000205,-0.00000074,-0.00000983,0.00001409,-0.00001493,-0.000
 00186,0.00000222,-0.00000307,-0.00000209,0.00000069,-0.00000266,0.0000
 0034,-0.00000104,-0.00000055,-0.00003091,-0.00006943,0.00000137,0.0000
 0099,0.00000175,-0.00001356,-0.00000297,0.00002454,0.00000781,-0.00000
 072,0.00000077,0.00000117,0.00000102,-0.00000084,0.00000109,0.00000024
 ,0.00000134,-0.00000178,-0.00000074,0.00000010,0.00000084,-0.00000254,
 0.00000507,-0.00000112,-0.00000258,0.00000239,-0.00000230,-0.00000268,
 0.00000103,-0.00000061,-0.00000070,0.00000033,0.00000007,0.00081842,0.
 00573166,-0.00215221,-0.00122477,-0.00063158,0.00057269,-0.00000054,0.
 00000164,0.00000296,-0.00000054,-0.00000005,-0.00000076,0.00554244,0.0
 0073740,0.00718972,0.00048375,-0.00174150,-0.00029642,-0.02045025,-0.0
 0148867,-0.01280634,0.00108150,-0.00147628,-0.00035386,0.00107044,0.00
 006525,-0.00027172,0.00009762,-0.00036474,-0.00021363,-0.14283828,0.00
 907747,-0.18586656,0.15484692,-0.01314973,0.19264680,-0.00024198,-0.00
 058846,0.00045195,0.00126520,0.00158266,-0.00098425,-0.00027702,0.0002
 1843,-0.00003240,-0.00000691,0.00010240,-0.00008018,0.00004831,-0.0000
 0405,0.00000457,0.00006250,0.00002228,0.00001292,-0.00006047,-0.000074
 51,-0.00001048,-0.00005319,0.00003736,0.00002623,-0.00000532,-0.000004
 06,-0.00000404,-0.00000061,0.00000530,-0.00000555,0.00006733,-0.000109
 70,0.00009496,0.00006767,-0.00005537,0.00005883,-0.00000977,-0.0000066
 1,-0.00001191,0.00003048,-0.00002689,-0.00001802,0.00000081,-0.0000089
 2,-0.00000343,0.00002993,-0.00001051,-0.00002807,-0.00000518,-0.000001
 27,-0.00000564,-0.00000562,0.00000046,-0.00000468,0.00000212,-0.000002
 39,-0.00000223,0.00096513,-0.00007921,0.00142919,-0.00007538,0.0000993
 1,-0.00020581,0.00004855,0.00016446,-0.00024001,-0.00000115,0.00000362
 ,0.00000357,0.00000183,-0.00000285,0.00000349,0.00000313,0.00000491,-0
 .00000606,-0.00000195,0.00000085,0.00000239,-0.00002609,0.00003728,0.0
 0001388,-0.00000155,-0.00000416,-0.00000407,-0.00000999,0.00000057,-0.
 00000150,-0.00000146,0.00000184,-0.00000004,0.02183705,-0.00838797,0.0
 3008170,-0.00513883,-0.00637493,-0.00036965,-0.00000153,0.00000358,0.0
 0000757,-0.00000128,0.00000046,-0.00000208,-0.22987269,-0.00510588,-0.
 14381089,0.00754873,-0.00127143,0.00552208,-0.01115942,0.01000544,-0.0
 2336888,0.00025589,0.00090716,-0.00029649,-0.12532379,-0.05304964,0.04
 177134,0.00773940,0.01158452,-0.01867927,-0.04570486,-0.02468341,-0.00
 234915,-0.00227819,-0.00498539,0.00035086,0.63678147,0.00003682,-0.000
 36315,0.00028474,0.00165698,0.00040836,-0.00056220,-0.00017870,0.00014
 321,-0.00001512,-0.00001897,0.00001586,-0.00001039,-0.00001642,-0.0000
 1975,-0.00000676,0.00004377,-0.00002333,-0.00000523,-0.00000158,0.0000
 1018,0.00000808,-0.00000209,0.00000087,0.00000130,-0.00000084,0.000000
 45,0.00000137,-0.00000251,-0.00000334,0.00000146,0.00000995,-0.0000157
 7,-0.00000037,0.00003654,-0.00005224,0.00001909,-0.00000318,0.00000398
 ,-0.00000260,0.00000749,0.00001178,-0.00000548,0.00000280,0.00000432,0
 .00000176,0.00001081,-0.00000926,-0.00001054,-0.00000246,-0.00000053,-
 0.00000301,0.00000372,0.00000372,-0.00000123,0.00000122,0.00000265,0.0
 0000114,0.00030320,-0.00063808,-0.00011673,0.00021783,0.00011354,0.000
 04289,-0.00006064,-0.00001528,0.00018910,-0.00000360,-0.00000786,-0.00
 000094,0.00000130,0.00000209,-0.00000088,-0.00000814,-0.00001048,0.000
 00295,0.00000162,0.00000309,-0.00000076,-0.00001579,0.00000994,0.00001
 363,0.00000470,-0.00000010,0.00000410,0.00000208,0.00000308,-0.0000000
 3,0.00000084,0.00000055,-0.00000033,-0.03287219,-0.01542779,0.01211221
 ,-0.00699176,0.00378604,0.00026259,0.00000011,0.00000071,-0.00000058,0
 .00000100,0.00000095,0.00000037,-0.03882831,-0.08676356,0.00978415,0.0
 1211510,0.00395851,0.01159206,0.01020990,-0.01165256,0.02022983,0.0008
 1829,-0.00072931,-0.00008569,-0.01984353,-0.14580420,0.13657157,-0.001
 18558,0.00464473,-0.00104256,-0.00023511,0.01987072,-0.02504259,-0.005
 21733,0.00333898,0.00288501,0.20609742,0.34177308,-0.00017450,0.000273
 87,-0.00028723,-0.00135489,-0.00102173,-0.00018168,0.00025950,-0.00024
 185,0.00002847,-0.00001565,-0.00003767,0.00011926,-0.00002008,-0.00001
 806,0.00001033,-0.00005561,0.00001770,0.00005561,0.00011024,-0.0000466
 3,0.00002289,-0.00000655,0.00001574,0.00002159,0.00000482,-0.00000873,
 0.00000337,-0.00000299,-0.00000428,0.00000431,0.00003681,-0.00000025,-
 0.00015209,-0.00003379,0.00004843,-0.00001970,-0.00000230,-0.00000486,
 0.00000440,0.00001279,0.00000482,-0.00001341,-0.00000315,0.00000147,0.
 00000043,-0.00002152,0.00002875,-0.00000678,-0.00000430,0.00000213,-0.
 00000638,0.00000006,0.00000704,-0.00000674,-0.00000009,-0.00000079,0.0
 0000094,0.00118972,-0.00045000,0.00041979,-0.00012236,0.00031586,-0.00
 035540,-0.00025906,-0.00000109,-0.00045528,0.00000044,-0.00000367,-0.0
 0000147,-0.00000056,-0.00000124,0.00000188,-0.00000345,-0.00000709,0.0
 0000168,-0.00000089,0.00000160,0.00000051,0.00000104,-0.00000674,0.000
 00111,-0.00000287,0.00000582,-0.00000081,0.00000254,0.00000443,-0.0000
 0166,-0.00000089,-0.00000072,0.00000003,0.07361598,0.03476729,0.012164
 35,0.00191672,0.00135837,0.00695759,0.00000077,0.00000306,0.00000347,0
 .00000033,-0.00000154,0.00000040,-0.08064382,0.04079757,-0.21272411,-0
 .01960640,-0.00071134,-0.01240536,-0.02410009,0.02016659,-0.06520774,-
 0.00020678,0.00007777,-0.00125287,-0.01949824,0.10569283,-0.27900126,0
 .00505598,0.01071419,-0.01072178,-0.04749344,-0.04779150,0.05127945,0.
 00076396,0.00315288,0.00239619,0.07473000,-0.19737737,0.57163934,0.000
 01172,-0.00010224,0.00007947,0.00012131,-0.00011473,0.00022798,-0.0000
 5997,0.00008879,-0.00000357,0.00002057,-0.00001846,0.00000092,-0.00000
 610,0.00000535,-0.00000931,0.00002107,-0.00001386,-0.00002214,-0.00000
 418,0.00001140,0.00000987,0.00002466,-0.00001557,-0.00001519,-0.000000
 73,0.00000038,0.00000121,0.00000081,-0.00000201,0.00000071,-0.00004570
 ,0.00002969,0.00000776,0.00000674,-0.00001229,0.00000062,-0.00000018,0
 .00000201,-0.00000103,-0.00001122,0.00000850,0.00000873,-0.00000076,0.
 00000143,0.00000098,0.00000797,-0.00001014,0.00001149,0.00000099,-0.00
 000222,0.00000224,0.00000174,-0.00000141,0.00000278,-0.00000084,0.0000
 0056,0.00000081,0.00001592,0.00010755,0.00003387,-0.00002311,-0.000028
 88,-0.00000634,0.00000662,0.00000883,-0.00000834,0.00000137,-0.0000002
 1,-0.00000172,-0.00000113,0.00000069,-0.00000120,0.00000016,0.00000018
 ,0.00000211,0.00000064,-0.00000055,-0.00000082,0.00000271,-0.00000287,
 -0.00000125,0.00000118,-0.00000243,0.00000196,0.00000281,-0.00000135,0
 .00000072,0.00000064,-0.00000051,-0.00000004,0.00285030,-0.00219078,-0
 .00062826,-0.00012813,0.00012182,-0.00048565,0.00000027,-0.00000144,-0
 .00000321,0.00000047,-0.00000021,0.00000075,-0.01382755,-0.01195157,0.
 00653555,-0.00014729,0.00157757,0.00042898,0.00027918,0.00092036,-0.00
 044596,-0.00022598,0.00031439,0.00024122,0.00093537,-0.00060975,-0.001
 35430,-0.00022592,0.00140815,0.00106328,-0.00069163,-0.00135291,-0.004
 97046,-0.00078026,-0.00058891,0.00032508,-0.25649128,-0.12609474,0.035
 93256,0.26835671,0.00004592,-0.00029780,0.00013001,0.00019482,0.000122
 38,0.00025034,-0.00015376,0.00018558,-0.00001014,0.00004000,0.00002547
 ,-0.00007893,0.00001620,0.00000740,-0.00002721,0.00002940,-0.00002465,
 -0.00003419,-0.00002479,0.00000886,0.00001784,0.00002523,-0.00000457,-
 0.00001634,-0.00000644,-0.00000164,-0.00000041,0.00000087,-0.00000121,
 -0.00000362,-0.00007394,0.00000407,0.00010980,0.00002414,-0.00003241,0
 .00001205,-0.00000031,0.00000198,-0.00000375,0.00000072,0.00000330,0.0
 0001289,-0.00000448,-0.00000649,-0.00000153,0.00002110,-0.00002131,0.0
 0001050,-0.00000074,-0.00000515,0.00000404,0.00000512,0.00000229,0.000
 00327,-0.00000290,-0.00000399,-0.00000116,0.00021992,-0.00007525,0.000
 01591,0.00002571,0.00003194,-0.00000017,-0.00004961,-0.00002789,0.0000
 2042,0.00000056,0.00000196,0.00000075,-0.00000165,-0.00000220,0.000000
 28,0.00000243,0.00000182,-0.00000246,-0.00000022,-0.00000244,0.0000002
 6,-0.00000294,0.00000253,0.00000499,0.00000175,-0.00000280,-0.00000026
 ,0.00000190,-0.00000082,0.00000021,-0.00000112,-0.00000065,0.00000008,
 -0.00198703,0.00410592,0.00556514,-0.00099115,-0.00012981,-0.00055844,
 0.00000245,0.00000125,-0.00000127,-0.00000112,-0.00000109,-0.00000021,
 0.00147018,0.00366524,0.00088459,0.00124864,-0.00233846,-0.00170675,0.
 00088644,-0.00062195,-0.00005206,0.00031421,-0.00075493,-0.00042572,-0
 .01396955,-0.00375692,0.00108835,0.00170487,-0.00257952,-0.00160188,-0
 .00157871,0.00554893,0.00221228,0.00009817,0.00006760,0.00008043,-0.12
 604268,-0.11657481,0.03027894,0.13851238,0.11348023,0.00006553,0.00026
 738,-0.00018144,-0.00037486,-0.00003551,-0.00019418,0.00012055,-0.0001
 5669,0.00000935,-0.00001913,0.00001169,0.00000088,0.00000476,-0.000005
 25,0.00000975,-0.00002904,0.00002178,0.00003247,0.00000891,-0.00001257
 ,-0.00000983,-0.00002083,0.00000821,0.00001049,0.00000188,0.00000200,-
 0.00000223,-0.00000128,0.00000140,-0.00000050,0.00004277,-0.00002010,-
 0.00001180,-0.00001807,0.00002348,-0.00001204,0.00000214,-0.00000100,0
 .00000289,0.00000606,-0.00000540,-0.00000317,0.00000091,-0.00000112,-0
 .00000011,-0.00001684,0.00001298,-0.00001177,0.00000017,0.00000380,-0.
 00000126,0.00000006,0.00000060,-0.00000046,0.00000004,-0.00000060,-0.0
 0000072,-0.00015285,-0.00001264,-0.00031086,0.00002362,0.00000885,-0.0
 0000565,-0.00002137,0.00000317,0.00001980,-0.00000190,0.00000031,0.000
 00165,0.00000193,0.00000042,0.00000002,-0.00000050,0.00000069,-0.00000
 185,-0.00000008,-0.00000018,0.00000038,0.00000133,-0.00000205,-0.00000
 266,-0.00000098,0.00000396,-0.00000211,-0.00000233,0.00000079,-0.00000
 003,-0.00000025,0.00000055,0.00000010,-0.00101782,0.00527095,-0.002893
 69,0.00156458,0.00052456,0.00069385,-0.00000071,-0.00000006,0.00000145
 ,-0.00000045,0.00000097,-0.00000085,-0.01870121,-0.01151707,0.00781536
 ,0.00108350,-0.00139901,-0.00027925,-0.00042213,-0.00003086,-0.0013885
 9,0.00025683,-0.00041087,-0.00012929,0.02364576,0.01335389,0.00044823,
 0.00051962,-0.00189703,-0.00027252,-0.00458854,0.00243168,-0.00125727,
 -0.00095612,-0.00055120,0.00020758,0.03595926,0.03028195,-0.06233565,-
 0.03696288,-0.03617687,0.06005551\\0.00000157,-0.00000446,0.00001318,-
 0.00000271,0.00000031,0.00000126,0.00000098,0.00000070,-0.00001410,0.0
 0000264,0.00000578,-0.00000094,0.00000597,-0.00000815,0.00000829,-0.00
 000990,0.00000520,0.00001023,0.00000427,0.00000142,-0.00000351,-0.0000
 0177,0.00000564,0.00000252,0.00000242,-0.00000045,-0.00000377,0.000000
 21,-0.00000109,0.00000154,-0.00000345,-0.00001099,0.00000062,0.0000085
 0,-0.00000919,0.00000343,-0.00000212,0.00000098,0.00000067,-0.00000120
 ,-0.00000002,0.00000202,-0.00000044,-0.00000168,-0.00000059,0.00000795
 ,-0.00000027,-0.00001530,-0.00000244,0.00000356,0.00000225,-0.00000010
 ,0.00000193,0.00000079,0.00000056,-0.00000105,0.00000074,-0.00000158,-
 0.00001145,-0.00003082,-0.00000725,0.00000846,0.00000148,-0.00000075,0
 .00000850,0.00001498,0.00000143,-0.00000090,0.00000042,0.00000043,-0.0
 0000151,0.00000065,0.00000051,-0.00000044,0.00000069,-0.00000038,-0.00
 000067,0.00000220,-0.00001161,0.00000874,0.00000576,0.00000078,0.00000
 048,-0.00000104,-0.00000049,0.00000023,0.00000119,-0.00000027,0.000000
 50,0.00000048,-0.00000838,-0.00000394,0.00000491,0.00000741,0.00000145
 ,-0.00000611,0.00000026,0.00000038,0.00000078,-0.00000026,0.00000104,0
 .00000015,-0.00000976,-0.00000408,-0.00000469,0.00000117,0.00000007,0.
 00000037,0.00000106,-0.00000379,0.00000398,0.00000049,0.00000031,0.000
 00007,0.00000710,0.00000713,-0.00000501,-0.00000008,0.00000055,-0.0000
 0098,0.00000597,0.00000629,-0.00000839,0.00000035,-0.00000072,0.000000
 40,0.00000377,-0.00000432,0.00001083,-0.00000087,-0.00000051,-0.000001
 61\\\@


 THE RARE EARTHS PERPLEX US IN OUR RESEARCHES,
 BAFFLE US IN OUR SPECULATIONS, AND HAUNT US IN OUR
 VERY DREAMS.  THEY STRETCH LIKE AN UNKNOWN BEFORE US,
 MOCKING, MYSTIFYING, AND MURMURING STRANGE REVELATIONS
 AND POSSIBILITIES.  -- SIR WILLIAM CROOKE, 1832-1919
 Job cpu time:       1 days  2 hours 23 minutes 12.7 seconds.
 Elapsed time:       0 days  1 hours 39 minutes 20.7 seconds.
 File lengths (MBytes):  RWF=   1806 Int=      0 D2E=      0 Chk=     40 Scr=      1
 Normal termination of Gaussian 16 at Sun Sep 21 08:02:04 2025.
