 Entering Gaussian System, Link 0=g16
 Input=PHPL0141.gjf
 Output=PHPL0141.log
 Initial command:
 /usr/local/g16/l1.exe "/dados_01/scratch/Gau-2174255.inp" -scrdir="/dados_01/scratch/"
 Entering Link 1 = /usr/local/g16/l1.exe PID=   2174256.
  
 Copyright (c) 1988-2017, Gaussian, Inc.  All Rights Reserved.
  
 This is part of the Gaussian(R) 16 program.  It is based on
 the Gaussian(R) 09 system (copyright 2009, Gaussian, Inc.),
 the Gaussian(R) 03 system (copyright 2003, Gaussian, Inc.),
 the Gaussian(R) 98 system (copyright 1998, Gaussian, Inc.),
 the Gaussian(R) 94 system (copyright 1995, Gaussian, Inc.),
 the Gaussian 92(TM) system (copyright 1992, Gaussian, Inc.),
 the Gaussian 90(TM) system (copyright 1990, Gaussian, Inc.),
 the Gaussian 88(TM) system (copyright 1988, Gaussian, Inc.),
 the Gaussian 86(TM) system (copyright 1986, Carnegie Mellon
 University), and the Gaussian 82(TM) system (copyright 1983,
 Carnegie Mellon University). Gaussian is a federally registered
 trademark of Gaussian, Inc.
  
 This software contains proprietary and confidential information,
 including trade secrets, belonging to Gaussian, Inc.
  
 This software is provided under written license and may be
 used, copied, transmitted, or stored only in accord with that
 written license.
  
 The following legend is applicable only to US Government
 contracts under FAR:
  
                    RESTRICTED RIGHTS LEGEND
  
 Use, reproduction and disclosure by the US Government is
 subject to restrictions as set forth in subparagraphs (a)
 and (c) of the Commercial Computer Software - Restricted
 Rights clause in FAR 52.227-19.
  
 Gaussian, Inc.
 340 Quinnipiac St., Bldg. 40, Wallingford CT 06492
  
  
 ---------------------------------------------------------------
 Warning -- This program may not be used in any manner that
 competes with the business of Gaussian, Inc. or will provide
 assistance to any competitor of Gaussian, Inc.  The licensee
 of this program is prohibited from giving any competitor of
 Gaussian, Inc. access to this program.  By using this program,
 the user acknowledges that Gaussian, Inc. is engaged in the
 business of creating and licensing software in the field of
 computational chemistry and represents and warrants to the
 licensee that it is not a competitor of Gaussian, Inc. and that
 it will not use this program in any manner prohibited above.
 ---------------------------------------------------------------
  

 Cite this work as:
 Gaussian 16, Revision B.01,
 M. J. Frisch, G. W. Trucks, H. B. Schlegel, G. E. Scuseria, 
 M. A. Robb, J. R. Cheeseman, G. Scalmani, V. Barone, 
 G. A. Petersson, H. Nakatsuji, X. Li, M. Caricato, A. V. Marenich, 
 J. Bloino, B. G. Janesko, R. Gomperts, B. Mennucci, H. P. Hratchian, 
 J. V. Ortiz, A. F. Izmaylov, J. L. Sonnenberg, D. Williams-Young, 
 F. Ding, F. Lipparini, F. Egidi, J. Goings, B. Peng, A. Petrone, 
 T. Henderson, D. Ranasinghe, V. G. Zakrzewski, J. Gao, N. Rega, 
 G. Zheng, W. Liang, M. Hada, M. Ehara, K. Toyota, R. Fukuda, 
 J. Hasegawa, M. Ishida, T. Nakajima, Y. Honda, O. Kitao, H. Nakai, 
 T. Vreven, K. Throssell, J. A. Montgomery, Jr., J. E. Peralta, 
 F. Ogliaro, M. J. Bearpark, J. J. Heyd, E. N. Brothers, K. N. Kudin, 
 V. N. Staroverov, T. A. Keith, R. Kobayashi, J. Normand, 
 K. Raghavachari, A. P. Rendell, J. C. Burant, S. S. Iyengar, 
 J. Tomasi, M. Cossi, J. M. Millam, M. Klene, C. Adamo, R. Cammi, 
 J. W. Ochterski, R. L. Martin, K. Morokuma, O. Farkas, 
 J. B. Foresman, and D. J. Fox, Gaussian, Inc., Wallingford CT, 2016.
 
 ******************************************
 Gaussian 16:  ES64L-G16RevB.01 20-Dec-2017
                21-Sep-2025 
 ******************************************
 %nprocs=16
 Will use up to   16 processors via shared memory.
 %mem=40GB
 %chk=PHPL0141.chk
 ----------------------------------------------------------------------
 # opt freq=noraman M08HX/6-311++G** scf=xqc Empiricaldispersion=pfd In
 t(Grid=ultraFine)
 ----------------------------------------------------------------------
 1/18=20,19=15,26=4,38=1/1,3;
 2/9=110,12=2,17=6,18=5,40=1/2;
 3/5=4,6=6,7=1111,11=2,25=1,30=1,71=1,74=-74,75=-5,124=11/1,2,3;
 4//1;
 5/5=2,8=3,13=1,38=5/2,8;
 6/7=2,8=2,9=2,10=2,28=1/1;
 7//1,2,3,16;
 1/18=20,19=15,26=4/3(2);
 2/9=110/2;
 99//99;
 2/9=110/2;
 3/5=4,6=6,7=1111,11=2,25=1,30=1,71=1,74=-74,75=-5,124=11/1,2,3;
 4/5=5,16=3,69=1/1;
 5/5=2,8=3,13=1,38=5/2,8;
 7//1,2,3,16;
 1/18=20,19=15,26=4/3(-5);
 2/9=110/2;
 6/7=2,8=2,9=2,10=2,19=2,28=1/1;
 99/9=1/99;
 --------
 PHPL0141
 --------
 Symbolic Z-matrix:
 Charge =  0 Multiplicity = 1
 O                     4.312    -0.5314    0.3113 
 C                    -0.4526    0.0607   -0.0356 
 C                    -1.2286    1.217     0.0475 
 C                    -1.0676   -1.1908   -0.0708 
 C                    -2.6193    1.1218    0.0955 
 C                    -2.4585   -1.286    -0.0228 
 C                    -3.2342   -0.1296    0.0603 
 C                     0.9721    0.1584   -0.0847 
 C                     2.1713    0.2404   -0.1257 
 C                     3.6056    0.3396   -0.1751 
 H                    -0.7641    2.1999    0.0758 
 H                    -0.4768   -2.1014   -0.1354 
 H                    -3.2235    2.022     0.1602 
 H                    -2.9376   -2.2603   -0.0502 
 H                    -4.3171   -0.2038    0.0976 
 H                     4.007     1.2368   -0.6716 
 

 GradGradGradGradGradGradGradGradGradGradGradGradGradGradGradGradGradGrad
 Berny optimization.
 Initialization pass.
                           ----------------------------
                           !    Initial Parameters    !
                           ! (Angstroms and Degrees)  !
 --------------------------                            --------------------------
 ! Name  Definition              Value          Derivative Info.                !
 --------------------------------------------------------------------------------
 ! R1    R(1,10)                 1.2224         estimate D2E/DX2                !
 ! R2    R(2,3)                  1.395          estimate D2E/DX2                !
 ! R3    R(2,4)                  1.3949         estimate D2E/DX2                !
 ! R4    R(2,8)                  1.4289         estimate D2E/DX2                !
 ! R5    R(3,5)                  1.3948         estimate D2E/DX2                !
 ! R6    R(3,11)                 1.0875         estimate D2E/DX2                !
 ! R7    R(4,6)                  1.395          estimate D2E/DX2                !
 ! R8    R(4,12)                 1.0874         estimate D2E/DX2                !
 ! R9    R(5,7)                  1.3948         estimate D2E/DX2                !
 ! R10   R(5,13)                 1.0861         estimate D2E/DX2                !
 ! R11   R(6,7)                  1.3949         estimate D2E/DX2                !
 ! R12   R(6,14)                 1.0861         estimate D2E/DX2                !
 ! R13   R(7,15)                 1.0861         estimate D2E/DX2                !
 ! R14   R(8,9)                  1.2027         estimate D2E/DX2                !
 ! R15   R(9,10)                 1.4386         estimate D2E/DX2                !
 ! R16   R(10,16)                1.1012         estimate D2E/DX2                !
 ! A1    A(3,2,4)              119.9945         estimate D2E/DX2                !
 ! A2    A(3,2,8)              120.0001         estimate D2E/DX2                !
 ! A3    A(4,2,8)              120.0054         estimate D2E/DX2                !
 ! A4    A(2,3,5)              120.0072         estimate D2E/DX2                !
 ! A5    A(2,3,11)             120.8708         estimate D2E/DX2                !
 ! A6    A(5,3,11)             119.122          estimate D2E/DX2                !
 ! A7    A(2,4,6)              119.9978         estimate D2E/DX2                !
 ! A8    A(2,4,12)             120.8831         estimate D2E/DX2                !
 ! A9    A(6,4,12)             119.1191         estimate D2E/DX2                !
 ! A10   A(3,5,7)              119.9965         estimate D2E/DX2                !
 ! A11   A(3,5,13)             120.0103         estimate D2E/DX2                !
 ! A12   A(7,5,13)             119.9933         estimate D2E/DX2                !
 ! A13   A(4,6,7)              119.9952         estimate D2E/DX2                !
 ! A14   A(4,6,14)             120.0129         estimate D2E/DX2                !
 ! A15   A(7,6,14)             119.9919         estimate D2E/DX2                !
 ! A16   A(5,7,6)              120.0089         estimate D2E/DX2                !
 ! A17   A(5,7,15)             120.0004         estimate D2E/DX2                !
 ! A18   A(6,7,15)             119.9908         estimate D2E/DX2                !
 ! A19   A(1,10,9)             120.8886         estimate D2E/DX2                !
 ! A20   A(1,10,16)            123.3197         estimate D2E/DX2                !
 ! A21   A(9,10,16)            115.7917         estimate D2E/DX2                !
 ! A22   L(2,8,9,12,-1)        179.9896         estimate D2E/DX2                !
 ! A23   L(8,9,10,11,-1)       179.9561         estimate D2E/DX2                !
 ! A24   L(2,8,9,12,-2)        180.0201         estimate D2E/DX2                !
 ! A25   L(8,9,10,11,-2)       180.027          estimate D2E/DX2                !
 ! D1    D(4,2,3,5)              0.0053         estimate D2E/DX2                !
 ! D2    D(4,2,3,11)          -179.9974         estimate D2E/DX2                !
 ! D3    D(8,2,3,5)           -179.997          estimate D2E/DX2                !
 ! D4    D(8,2,3,11)             0.0003         estimate D2E/DX2                !
 ! D5    D(3,2,4,6)             -0.0049         estimate D2E/DX2                !
 ! D6    D(3,2,4,12)          -179.9952         estimate D2E/DX2                !
 ! D7    D(8,2,4,6)            179.9973         estimate D2E/DX2                !
 ! D8    D(8,2,4,12)             0.007          estimate D2E/DX2                !
 ! D9    D(3,2,10,1)           148.2039         estimate D2E/DX2                !
 ! D10   D(3,2,10,16)          -31.7835         estimate D2E/DX2                !
 ! D11   D(4,2,10,1)           -31.793          estimate D2E/DX2                !
 ! D12   D(4,2,10,16)          148.2196         estimate D2E/DX2                !
 ! D13   D(2,3,5,7)             -0.0053         estimate D2E/DX2                !
 ! D14   D(2,3,5,13)           179.9998         estimate D2E/DX2                !
 ! D15   D(11,3,5,7)           179.9974         estimate D2E/DX2                !
 ! D16   D(11,3,5,13)            0.0025         estimate D2E/DX2                !
 ! D17   D(2,4,6,7)              0.0046         estimate D2E/DX2                !
 ! D18   D(2,4,6,14)           179.9995         estimate D2E/DX2                !
 ! D19   D(12,4,6,7)           179.9951         estimate D2E/DX2                !
 ! D20   D(12,4,6,14)           -0.0101         estimate D2E/DX2                !
 ! D21   D(3,5,7,6)              0.005          estimate D2E/DX2                !
 ! D22   D(3,5,7,15)          -179.9956         estimate D2E/DX2                !
 ! D23   D(13,5,7,6)           179.9998         estimate D2E/DX2                !
 ! D24   D(13,5,7,15)           -0.0007         estimate D2E/DX2                !
 ! D25   D(4,6,7,5)             -0.0046         estimate D2E/DX2                !
 ! D26   D(4,6,7,15)           179.9959         estimate D2E/DX2                !
 ! D27   D(14,6,7,5)          -179.9995         estimate D2E/DX2                !
 ! D28   D(14,6,7,15)            0.001          estimate D2E/DX2                !
 --------------------------------------------------------------------------------
 Trust Radius=3.00D-01 FncErr=1.00D-07 GrdErr=1.00D-06 EigMax=2.50D+02 EigMin=1.00D-04
 Number of steps in this run=     79 maximum allowed number of steps=    100.
 GradGradGradGradGradGradGradGradGradGradGradGradGradGradGradGradGradGrad

                          Input orientation:                          
 ---------------------------------------------------------------------
 Center     Atomic      Atomic             Coordinates (Angstroms)
 Number     Number       Type             X           Y           Z
 ---------------------------------------------------------------------
      1          8           0        4.312000   -0.531400    0.311300
      2          6           0       -0.452600    0.060700   -0.035600
      3          6           0       -1.228600    1.217000    0.047500
      4          6           0       -1.067600   -1.190800   -0.070800
      5          6           0       -2.619300    1.121800    0.095500
      6          6           0       -2.458500   -1.286000   -0.022800
      7          6           0       -3.234200   -0.129600    0.060300
      8          6           0        0.972100    0.158400   -0.084700
      9          6           0        2.171300    0.240400   -0.125700
     10          6           0        3.605600    0.339600   -0.175100
     11          1           0       -0.764100    2.199900    0.075800
     12          1           0       -0.476800   -2.101400   -0.135400
     13          1           0       -3.223500    2.022000    0.160200
     14          1           0       -2.937600   -2.260300   -0.050200
     15          1           0       -4.317100   -0.203800    0.097600
     16          1           0        4.007000    1.236800   -0.671600
 ---------------------------------------------------------------------
                    Distance matrix (angstroms):
                    1          2          3          4          5
     1  O    0.000000
     2  C    4.813765   0.000000
     3  C    5.815904   1.395031   0.000000
     4  C    5.433314   1.394889   2.416075   0.000000
     5  C    7.128994   2.416135   1.394781   2.789901   0.000000
     6  C    6.820610   2.416071   2.789732   1.394980   2.416061
     7  C    7.561057   2.789751   2.415766   2.416089   1.394756
     8  C    3.433303   1.428890   2.445647   2.445590   3.722736
     9  C    2.317162   2.631589   3.541619   3.541443   4.876027
    10  C    1.222386   4.070164   4.918218   4.918516   6.279685
    11  H    5.769077   2.164629   1.087499   3.407411   2.145799
    12  H    5.059352   2.164537   3.407409   1.087387   3.877195
    13  H    7.957791   3.400430   2.154148   3.875997   1.086096
    14  H    7.461667   3.400365   3.875802   2.154334   3.400168
    15  H    8.637960   3.875831   3.400002   3.400261   2.154007
    16  H    2.045886   4.655721   5.284790   5.657364   6.671545
                    6          7          8          9         10
     6  C    0.000000
     7  C    1.394947   0.000000
     8  C    3.722787   4.218641   0.000000
     9  C    4.876016   5.421340   1.202699   0.000000
    10  C    6.280054   6.859914   2.641274   1.438575   0.000000
    11  H    3.877140   3.395321   2.684748   3.535084   4.755833
    12  H    2.145854   3.395519   2.684879   3.535047   4.756684
    13  H    3.400232   2.153945   4.597395   5.688559   7.041271
    14  H    1.086070   2.154081   4.597505   5.688590   7.041914
    15  H    2.154077   1.086080   5.304720   6.507420   7.945994
    16  H    6.970520   7.405248   3.273838   2.158846   1.101182
                   11         12         13         14         15
    11  H    0.000000
    12  H    4.316055   0.000000
    13  H    2.467270   4.963282   0.000000
    14  H    4.963201   2.467396   4.296987   0.000000
    15  H    4.289762   4.289881   2.480739   2.480737   0.000000
    16  H    4.924385   5.615652   7.320421   7.800213   8.482785
                   16
    16  H    0.000000
 Stoichiometry    C9H6O
 Framework group  C1[X(C9H6O)]
 Deg. of freedom    42
 Full point group                 C1      NOp   1
 Largest Abelian subgroup         C1      NOp   1
 Largest concise Abelian subgroup C1      NOp   1
                         Standard orientation:                         
 ---------------------------------------------------------------------
 Center     Atomic      Atomic             Coordinates (Angstroms)
 Number     Number       Type             X           Y           Z
 ---------------------------------------------------------------------
      1          8           0        4.297145    0.537790   -0.314333
      2          6           0       -0.465858   -0.064165    0.037503
      3          6           0       -1.240043   -1.221339   -0.050226
      4          6           0       -1.082910    1.186092    0.080149
      5          6           0       -2.630980   -1.128255   -0.095409
      6          6           0       -2.474047    1.279177    0.034966
      7          6           0       -3.247932    0.121903   -0.052763
      8          6           0        0.959086   -0.159697    0.083716
      9          6           0        2.158490   -0.239871    0.122287
     10          6           0        3.593037   -0.336889    0.168777
     11          1           0       -0.773932   -2.203292   -0.084343
     12          1           0       -0.493540    2.097351    0.148428
     13          1           0       -3.233767   -2.029136   -0.163713
     14          1           0       -2.954745    2.252509    0.068164
     15          1           0       -4.331017    0.194455   -0.087870
     16          1           0        3.996786   -1.235939    0.659997
 ---------------------------------------------------------------------
 Rotational constants (GHZ):           5.0541343           0.5658119           0.5118984
 Standard basis: 6-311++G(d,p) (5D, 7F)
 There are   272 symmetry adapted cartesian basis functions of A   symmetry.
 There are   262 symmetry adapted basis functions of A   symmetry.
   262 basis functions,   414 primitive gaussians,   272 cartesian basis functions
    34 alpha electrons       34 beta electrons
       nuclear repulsion energy       413.2801431604 Hartrees.
 NAtoms=   16 NActive=   16 NUniq=   16 SFac= 1.00D+00 NAtFMM=   60 NAOKFM=F Big=F
 Integral buffers will be    131072 words long.
 Raffenetti 2 integral format.
 Two-electron integral symmetry is turned on.
 R6APFD:  NTU= -4 IXU= 1 FactS= 1.050
 Nuclear repulsion after empirical dispersion term =      413.2737112982 Hartrees.
 One-electron integrals computed using PRISM.
 NBasis=   262 RedAO= T EigKep=  1.30D-06  NBF=   262
 NBsUse=   260 1.00D-06 EigRej=  1.79D-07 NBFU=   260
 ExpMin= 3.60D-02 ExpMax= 8.59D+03 ExpMxC= 1.30D+03 IAcc=3 IRadAn=         5 AccDes= 0.00D+00
 Harris functional with IExCor= 1009 and IRadAn=       5 diagonalized for initial guess.
 HarFok:  IExCor= 1009 AccDes= 0.00D+00 IRadAn=         5 IDoV= 1 UseB2=F ITyADJ=14
 ICtDFT=  3500011 ScaDFX=  1.000000  1.000000  1.000000  1.000000
 FoFCou: FMM=F IPFlag=           0 FMFlag=      100000 FMFlg1=           0
         NFxFlg=           0 DoJE=T BraDBF=F KetDBF=T FulRan=T
         wScrn=  0.000000 ICntrl=       500 IOpCl=  0 I1Cent=   200000004 NGrid=           0
         NMat0=    1 NMatS0=      1 NMatT0=    0 NMatD0=    1 NMtDS0=    0 NMtDT0=    0
 Petite list used in FoFCou.
 Requested convergence on RMS density matrix=1.00D-08 within  32 cycles.
 Requested convergence on MAX density matrix=1.00D-06.
 Requested convergence on             energy=1.00D-06.
 No special actions if energy rises.
 SCF Done:  E(RM08HX) =  -421.695566430     A.U. after   15 cycles
            NFock= 15  Conv=0.88D-08     -V/T= 2.0046
 QCSCF skips out because SCF is already converged.

 **********************************************************************

            Population analysis using the SCF Density.

 **********************************************************************

 Orbital symmetries:
       Occupied  (A) (A) (A) (A) (A) (A) (A) (A) (A) (A) (A) (A)
                 (A) (A) (A) (A) (A) (A) (A) (A) (A) (A) (A) (A)
                 (A) (A) (A) (A) (A) (A) (A) (A) (A) (A)
       Virtual   (A) (A) (A) (A) (A) (A) (A) (A) (A) (A) (A) (A)
                 (A) (A) (A) (A) (A) (A) (A) (A) (A) (A) (A) (A)
                 (A) (A) (A) (A) (A) (A) (A) (A) (A) (A) (A) (A)
                 (A) (A) (A) (A) (A) (A) (A) (A) (A) (A) (A) (A)
                 (A) (A) (A) (A) (A) (A) (A) (A) (A) (A) (A) (A)
                 (A) (A) (A) (A) (A) (A) (A) (A) (A) (A) (A) (A)
                 (A) (A) (A) (A) (A) (A) (A) (A) (A) (A) (A) (A)
                 (A) (A) (A) (A) (A) (A) (A) (A) (A) (A) (A) (A)
                 (A) (A) (A) (A) (A) (A) (A) (A) (A) (A) (A) (A)
                 (A) (A) (A) (A) (A) (A) (A) (A) (A) (A) (A) (A)
                 (A) (A) (A) (A) (A) (A) (A) (A) (A) (A) (A) (A)
                 (A) (A) (A) (A) (A) (A) (A) (A) (A) (A) (A) (A)
                 (A) (A) (A) (A) (A) (A) (A) (A) (A) (A) (A) (A)
                 (A) (A) (A) (A) (A) (A) (A) (A) (A) (A) (A) (A)
                 (A) (A) (A) (A) (A) (A) (A) (A) (A) (A) (A) (A)
                 (A) (A) (A) (A) (A) (A) (A) (A) (A) (A) (A) (A)
                 (A) (A) (A) (A) (A) (A) (A) (A) (A) (A) (A) (A)
                 (A) (A) (A) (A) (A) (A) (A) (A) (A) (A) (A) (A)
                 (A) (A) (A) (A) (A) (A) (A) (A) (A) (A)
 The electronic state is 1-A.
 Alpha  occ. eigenvalues --  -19.62516 -10.64853 -10.58269 -10.56649 -10.56309
 Alpha  occ. eigenvalues --  -10.56236 -10.55942 -10.55792 -10.55753 -10.54926
 Alpha  occ. eigenvalues --   -1.18164  -1.00123  -0.91895  -0.87437  -0.86776
 Alpha  occ. eigenvalues --   -0.77299  -0.72106  -0.71912  -0.64200  -0.60763
 Alpha  occ. eigenvalues --   -0.57417  -0.55473  -0.54310  -0.52715  -0.51338
 Alpha  occ. eigenvalues --   -0.49151  -0.47442  -0.44087  -0.43518  -0.39485
 Alpha  occ. eigenvalues --   -0.36553  -0.35797  -0.33424  -0.31288
 Alpha virt. eigenvalues --   -0.06178  -0.03176  -0.01982  -0.01410  -0.01208
 Alpha virt. eigenvalues --   -0.00591  -0.00109   0.00976   0.01943   0.02205
 Alpha virt. eigenvalues --    0.03288   0.03993   0.04164   0.05558   0.05974
 Alpha virt. eigenvalues --    0.06372   0.07198   0.07575   0.09333   0.09731
 Alpha virt. eigenvalues --    0.09948   0.10425   0.10811   0.10886   0.11178
 Alpha virt. eigenvalues --    0.11561   0.12019   0.12164   0.12366   0.13766
 Alpha virt. eigenvalues --    0.13862   0.14253   0.14965   0.15366   0.16268
 Alpha virt. eigenvalues --    0.17225   0.18197   0.18550   0.19091   0.19853
 Alpha virt. eigenvalues --    0.20583   0.22260   0.22949   0.23219   0.24229
 Alpha virt. eigenvalues --    0.24802   0.25039   0.27397   0.28206   0.28400
 Alpha virt. eigenvalues --    0.29365   0.29954   0.30572   0.31734   0.32103
 Alpha virt. eigenvalues --    0.32556   0.33912   0.35810   0.36749   0.37328
 Alpha virt. eigenvalues --    0.41106   0.42607   0.46086   0.49379   0.51704
 Alpha virt. eigenvalues --    0.53399   0.55018   0.55426   0.55680   0.56067
 Alpha virt. eigenvalues --    0.56477   0.57041   0.58791   0.59376   0.60087
 Alpha virt. eigenvalues --    0.63392   0.63524   0.63864   0.65234   0.66632
 Alpha virt. eigenvalues --    0.66746   0.69635   0.70971   0.72503   0.72824
 Alpha virt. eigenvalues --    0.74089   0.75453   0.77720   0.78136   0.78529
 Alpha virt. eigenvalues --    0.80421   0.83165   0.84393   0.85475   0.86417
 Alpha virt. eigenvalues --    0.87263   0.89611   0.89878   0.90345   0.92539
 Alpha virt. eigenvalues --    0.93394   0.95510   0.99958   1.02247   1.03510
 Alpha virt. eigenvalues --    1.04909   1.06578   1.10121   1.11034   1.12852
 Alpha virt. eigenvalues --    1.13210   1.13958   1.15432   1.17166   1.20453
 Alpha virt. eigenvalues --    1.23104   1.24894   1.28634   1.31723   1.32907
 Alpha virt. eigenvalues --    1.38260   1.45127   1.50752   1.51794   1.52900
 Alpha virt. eigenvalues --    1.53420   1.54336   1.57290   1.57696   1.59711
 Alpha virt. eigenvalues --    1.61050   1.63061   1.66063   1.66347   1.67984
 Alpha virt. eigenvalues --    1.69521   1.74593   1.74927   1.77901   1.79118
 Alpha virt. eigenvalues --    1.80188   1.83878   1.84895   1.88928   1.90057
 Alpha virt. eigenvalues --    1.91668   1.94474   1.96102   1.96189   1.97886
 Alpha virt. eigenvalues --    1.98093   2.00906   2.04507   2.06691   2.10287
 Alpha virt. eigenvalues --    2.13084   2.17713   2.28567   2.35208   2.38467
 Alpha virt. eigenvalues --    2.40954   2.42461   2.44736   2.44795   2.49226
 Alpha virt. eigenvalues --    2.49760   2.57665   2.59689   2.63299   2.65615
 Alpha virt. eigenvalues --    2.68402   2.68531   2.70679   2.71683   2.73148
 Alpha virt. eigenvalues --    2.75059   2.76768   2.79187   2.83647   2.86115
 Alpha virt. eigenvalues --    2.86604   2.88439   2.91733   2.94310   2.96282
 Alpha virt. eigenvalues --    2.96369   3.01029   3.03430   3.05480   3.10657
 Alpha virt. eigenvalues --    3.14750   3.15788   3.17291   3.25926   3.28734
 Alpha virt. eigenvalues --    3.40085   3.41131   3.42251   3.47293   3.52474
 Alpha virt. eigenvalues --    3.55609   3.56854   3.61288   3.64510   3.69741
 Alpha virt. eigenvalues --    3.82365   3.97279   4.00971   4.07351   4.19094
 Alpha virt. eigenvalues --    4.21245   4.41124   4.89612   5.10298   5.26837
 Alpha virt. eigenvalues --    5.77479  23.52793  23.76506  23.92651  23.99804
 Alpha virt. eigenvalues --   24.00657  24.11295  24.12921  24.22482  25.16755
 Alpha virt. eigenvalues --   49.95011
          Condensed to atoms (all electrons):
               1          2          3          4          5          6
     1  O    7.993057  -0.006659   0.008389  -0.012176   0.002064  -0.004709
     2  C   -0.006659  12.095193  -4.494436  -4.632328   2.562033   2.797411
     3  C    0.008389  -4.494436  25.558400  -2.709514 -10.216267  -1.792932
     4  C   -0.012176  -4.632328  -2.709514  25.334439  -2.239495 -10.244588
     5  C    0.002064   2.562033 -10.216267  -2.239495  14.745931   3.521711
     6  C   -0.004709   2.797411  -1.792932 -10.244588   3.521711  14.512738
     7  C    0.000154  -2.880159   4.467774   4.947993  -4.965443  -5.177863
     8  C   -0.016112   0.468629  -3.031742  -2.699937   2.024647   1.913750
     9  C   -0.195966   0.373656  -1.022215  -0.996231   0.423473   0.329248
    10  C    0.452621  -1.007006   0.087883   0.066405  -0.103865  -0.158590
    11  H   -0.001150  -0.112407   0.756188   0.110028  -0.351608  -0.057533
    12  H   -0.000239  -0.139728   0.092050   0.765727  -0.063280  -0.333195
    13  H    0.000024   0.073296  -0.164576  -0.047979   0.451076   0.071263
    14  H   -0.000042   0.069383  -0.032684  -0.184637   0.070023   0.464786
    15  H   -0.000002  -0.036101   0.088314   0.086848  -0.115117  -0.114546
    16  H   -0.025587  -0.009249  -0.003843  -0.004213   0.001625   0.002270
               7          8          9         10         11         12
     1  O    0.000154  -0.016112  -0.195966   0.452621  -0.001150  -0.000239
     2  C   -2.880159   0.468629   0.373656  -1.007006  -0.112407  -0.139728
     3  C    4.467774  -3.031742  -1.022215   0.087883   0.756188   0.092050
     4  C    4.947993  -2.699937  -0.996231   0.066405   0.110028   0.765727
     5  C   -4.965443   2.024647   0.423473  -0.103865  -0.351608  -0.063280
     6  C   -5.177863   1.913750   0.329248  -0.158590  -0.057533  -0.333195
     7  C   12.126865  -1.989911  -0.189890   0.047307   0.121794   0.130589
     8  C   -1.989911   7.433392   0.595263   0.150047  -0.078147  -0.066257
     9  C   -0.189890   0.595263   9.272439  -2.784383  -0.045992  -0.040697
    10  C    0.047307   0.150047  -2.784383   9.286986   0.008217   0.008123
    11  H    0.121794  -0.078147  -0.045992   0.008217   0.426869   0.002661
    12  H    0.130589  -0.066257  -0.040697   0.008123   0.002661   0.416213
    13  H   -0.127212   0.044504   0.007978  -0.003006  -0.009071  -0.001190
    14  H   -0.126964   0.040850   0.007219  -0.003247  -0.000998  -0.008864
    15  H    0.456885  -0.035671  -0.005156  -0.000309   0.003091   0.002783
    16  H   -0.000634   0.001850  -0.117490   0.351479  -0.002450  -0.000419
              13         14         15         16
     1  O    0.000024  -0.000042  -0.000002  -0.025587
     2  C    0.073296   0.069383  -0.036101  -0.009249
     3  C   -0.164576  -0.032684   0.088314  -0.003843
     4  C   -0.047979  -0.184637   0.086848  -0.004213
     5  C    0.451076   0.070023  -0.115117   0.001625
     6  C    0.071263   0.464786  -0.114546   0.002270
     7  C   -0.127212  -0.126964   0.456885  -0.000634
     8  C    0.044504   0.040850  -0.035671   0.001850
     9  C    0.007978   0.007219  -0.005156  -0.117490
    10  C   -0.003006  -0.003247  -0.000309   0.351479
    11  H   -0.009071  -0.000998   0.003091  -0.002450
    12  H   -0.001190  -0.008864   0.002783  -0.000419
    13  H    0.396402   0.001525  -0.002823   0.000095
    14  H    0.001525   0.395189  -0.002732   0.000007
    15  H   -0.002823  -0.002732   0.392703  -0.000014
    16  H    0.000095   0.000007  -0.000014   0.646119
 Mulliken charges:
               1
     1  O   -0.193667
     2  C    0.878471
     3  C   -1.590789
     4  C   -1.540343
     5  C    0.252492
     6  C    0.270780
     7  C   -0.841287
     8  C    1.244846
     9  C    0.388744
    10  C   -0.398660
    11  H    0.230507
    12  H    0.235724
    13  H    0.309692
    14  H    0.311188
    15  H    0.281847
    16  H    0.160455
 Sum of Mulliken charges =  -0.00000
 Mulliken charges with hydrogens summed into heavy atoms:
               1
     1  O   -0.193667
     2  C    0.878471
     3  C   -1.360282
     4  C   -1.304619
     5  C    0.562185
     6  C    0.581968
     7  C   -0.559440
     8  C    1.244846
     9  C    0.388744
    10  C   -0.238206
 Electronic spatial extent (au):  <R**2>=           2033.2299
 Charge=              0.0000 electrons
 Dipole moment (field-independent basis, Debye):
    X=             -3.8721    Y=             -1.6434    Z=              0.9349  Tot=              4.3090
 Quadrupole moment (field-independent basis, Debye-Ang):
   XX=            -62.6238   YY=            -51.8795   ZZ=            -61.4171
   XY=             -7.8345   XZ=              4.6564   YZ=              0.7243
 Traceless Quadrupole moment (field-independent basis, Debye-Ang):
   XX=             -3.9836   YY=              6.7606   ZZ=             -2.7770
   XY=             -7.8345   XZ=              4.6564   YZ=              0.7243
 Octapole moment (field-independent basis, Debye-Ang**2):
  XXX=            -83.9105  YYY=              1.6293  ZZZ=             -1.0989  XYY=             -5.8985
  XXY=            -32.3982  XXZ=             16.7924  XZZ=             12.6870  YZZ=              0.2197
  YYZ=              0.4353  XYZ=             -0.2966
 Hexadecapole moment (field-independent basis, Debye-Ang**3):
 XXXX=          -2530.3391 YYYY=           -308.0397 ZZZZ=            -77.8338 XXXY=           -135.5078
 XXXZ=             80.5526 YYYX=              0.5341 YYYZ=              2.4732 ZZZX=             -4.4202
 ZZZY=             -1.0081 XXYY=           -414.9349 XXZZ=           -419.3917 YYZZ=            -76.4686
 XXYZ=              4.6071 YYXZ=              3.0114 ZZXY=              1.0183
 N-N= 4.132737112982D+02 E-N=-1.807010292838D+03  KE= 4.197849829438D+02
 R6APFD:  NTU= -4 IXU= 1 FactS= 1.050
 Calling FoFJK, ICntrl=      2127 FMM=F ISym2X=0 I1Cent= 0 IOpClX= 0 NMat=1 NMatS=1 NMatT=0.
 ***** Axes restored to original set *****
 -------------------------------------------------------------------
 Center     Atomic                   Forces (Hartrees/Bohr)
 Number     Number              X              Y              Z
 -------------------------------------------------------------------
      1        8          -0.010878943    0.025121945   -0.014718927
      2        6           0.006028048    0.000262047   -0.000034154
      3        6          -0.010765198    0.005917758    0.000085996
      4        6          -0.009909691   -0.007609786    0.000586413
      5        6           0.004056793   -0.003426452   -0.000043735
      6        6           0.003543193    0.004296160   -0.000285586
      7        6           0.002416665   -0.000037737   -0.000105866
      8        6          -0.007411148    0.000440560   -0.000515939
      9        6           0.001920871    0.002659927   -0.001310576
     10        6           0.012577653   -0.029422410    0.016770140
     11        1           0.003032592   -0.001123457   -0.000212470
     12        1           0.003015686    0.001568353    0.000109309
     13        1          -0.000293005    0.001473393    0.000130196
     14        1          -0.000065019   -0.001503753   -0.000082429
     15        1          -0.001753552   -0.000104068    0.000085280
     16        1           0.004485055    0.001487520   -0.000457653
 -------------------------------------------------------------------
 Cartesian Forces:  Max     0.029422410 RMS     0.007637984

 GradGradGradGradGradGradGradGradGradGradGradGradGradGradGradGradGradGrad
 Berny optimization.
 FormGI is forming the generalized inverse of G from B-inverse, IUseBI=4.
 Internal  Forces:  Max     0.030043611 RMS     0.004365389
 Search for a local minimum.
 Step number   1 out of a maximum of   79
 All quantities printed in internal units (Hartrees-Bohrs-Radians)
 Mixed Optimization -- RFO/linear search
 Second derivative matrix not updated -- first step.
 ITU=  0
     Eigenvalues ---    0.00230   0.00230   0.01335   0.01578   0.01715
     Eigenvalues ---    0.02155   0.02155   0.02156   0.02156   0.02156
     Eigenvalues ---    0.02157   0.02157   0.02158   0.04013   0.04699
     Eigenvalues ---    0.16000   0.16000   0.16000   0.16000   0.16000
     Eigenvalues ---    0.16000   0.22000   0.22000   0.22000   0.23486
     Eigenvalues ---    0.25000   0.33552   0.35103   0.35116   0.35268
     Eigenvalues ---    0.35270   0.35271   0.39782   0.41149   0.42132
     Eigenvalues ---    0.42322   0.46460   0.46468   0.46485   0.46494
     Eigenvalues ---    0.94334   1.03478
 RFO step:  Lambda=-2.67273765D-03 EMin= 2.30000000D-03
 Linear search not attempted -- first point.
 Iteration  1 RMS(Cart)=  0.03384793 RMS(Int)=  0.00194717
 Iteration  2 RMS(Cart)=  0.00192773 RMS(Int)=  0.00015552
 Iteration  3 RMS(Cart)=  0.00000758 RMS(Int)=  0.00015539
 Iteration  4 RMS(Cart)=  0.00000000 RMS(Int)=  0.00015539
 Variable       Old X    -DE/DX   Delta X   Delta X   Delta X     New X
                                 (Linear)    (Quad)   (Total)
    R1        2.30997  -0.03004   0.00000  -0.03176  -0.03176   2.27822
    R2        2.63623   0.00437   0.00000   0.00984   0.00983   2.64606
    R3        2.63596   0.00436   0.00000   0.00982   0.00981   2.64577
    R4        2.70021   0.00072   0.00000   0.00174   0.00174   2.70195
    R5        2.63575  -0.00393   0.00000  -0.00839  -0.00839   2.62736
    R6        2.05507   0.00027   0.00000   0.00078   0.00078   2.05585
    R7        2.63613  -0.00401   0.00000  -0.00860  -0.00860   2.62753
    R8        2.05486   0.00032   0.00000   0.00090   0.00090   2.05576
    R9        2.63571  -0.00012   0.00000  -0.00073  -0.00073   2.63498
   R10        2.05242   0.00139   0.00000   0.00392   0.00392   2.05634
   R11        2.63607  -0.00029   0.00000  -0.00112  -0.00111   2.63495
   R12        2.05237   0.00138   0.00000   0.00388   0.00388   2.05626
   R13        2.05239   0.00176   0.00000   0.00495   0.00495   2.05734
   R14        2.27277   0.00806   0.00000   0.00777   0.00777   2.28054
   R15        2.71851   0.00592   0.00000   0.01477   0.01477   2.73329
   R16        2.08093   0.00305   0.00000   0.00903   0.00903   2.08996
    A1        2.09430  -0.00084   0.00000  -0.00151  -0.00152   2.09278
    A2        2.09440   0.00069   0.00000   0.00184   0.00185   2.09624
    A3        2.09449   0.00014   0.00000  -0.00033  -0.00033   2.09416
    A4        2.09452  -0.00066   0.00000  -0.00194  -0.00194   2.09258
    A5        2.10959  -0.00299   0.00000  -0.01943  -0.01943   2.09016
    A6        2.07907   0.00365   0.00000   0.02137   0.02137   2.10044
    A7        2.09436  -0.00070   0.00000  -0.00219  -0.00219   2.09216
    A8        2.10981  -0.00312   0.00000  -0.02027  -0.02027   2.08954
    A9        2.07902   0.00383   0.00000   0.02246   0.02246   2.10148
   A10        2.09433   0.00066   0.00000   0.00193   0.00193   2.09626
   A11        2.09457  -0.00092   0.00000  -0.00461  -0.00461   2.08996
   A12        2.09428   0.00026   0.00000   0.00268   0.00268   2.09696
   A13        2.09431   0.00077   0.00000   0.00237   0.00236   2.09667
   A14        2.09462  -0.00101   0.00000  -0.00501  -0.00501   2.08961
   A15        2.09425   0.00024   0.00000   0.00264   0.00264   2.09689
   A16        2.09455   0.00077   0.00000   0.00134   0.00134   2.09589
   A17        2.09440  -0.00040   0.00000  -0.00078  -0.00078   2.09362
   A18        2.09423  -0.00036   0.00000  -0.00056  -0.00056   2.09368
   A19        2.10990   0.00972   0.00000   0.04363   0.04289   2.15280
   A20        2.15234  -0.00863   0.00000  -0.04499  -0.04573   2.10661
   A21        2.02095  -0.00109   0.00000   0.00136   0.00062   2.02156
   A22        3.14141  -0.00107   0.00000  -0.02156  -0.02157   3.11984
   A23        3.14083  -0.00055   0.00000  -0.02979  -0.02978   3.11105
   A24        3.14194   0.00047   0.00000   0.01111   0.01105   3.15300
   A25        3.14206   0.00036   0.00000   0.01759   0.01763   3.15969
    D1        0.00009   0.00009   0.00000   0.00274   0.00275   0.00284
    D2       -3.14155   0.00002   0.00000  -0.00032  -0.00027   3.14137
    D3       -3.14154   0.00005   0.00000   0.00325   0.00322  -3.13832
    D4        0.00001  -0.00003   0.00000   0.00019   0.00020   0.00021
    D5       -0.00009   0.00007   0.00000   0.00393   0.00391   0.00383
    D6       -3.14151   0.00004   0.00000   0.00261   0.00261  -3.13890
    D7        3.14155   0.00011   0.00000   0.00342   0.00344  -3.13820
    D8        0.00012   0.00009   0.00000   0.00210   0.00213   0.00226
    D9        2.58665   0.00056   0.00000   0.12522   0.12516   2.71180
   D10       -0.55473   0.00021   0.00000   0.05591   0.05589  -0.49883
   D11       -0.55489   0.00070   0.00000   0.12804   0.12805  -0.42684
   D12        2.58692   0.00036   0.00000   0.05873   0.05879   2.64571
   D13       -0.00009  -0.00017   0.00000  -0.00637  -0.00637  -0.00646
   D14        3.14159  -0.00009   0.00000  -0.00337  -0.00338   3.13821
   D15        3.14155  -0.00009   0.00000  -0.00337  -0.00333   3.13821
   D16        0.00004  -0.00001   0.00000  -0.00037  -0.00034  -0.00030
   D17        0.00008  -0.00016   0.00000  -0.00696  -0.00696  -0.00688
   D18        3.14158  -0.00004   0.00000  -0.00213  -0.00213   3.13946
   D19        3.14151  -0.00013   0.00000  -0.00567  -0.00565   3.13586
   D20       -0.00018  -0.00002   0.00000  -0.00083  -0.00082  -0.00099
   D21        0.00009   0.00008   0.00000   0.00333   0.00335   0.00344
   D22       -3.14152   0.00006   0.00000   0.00243   0.00244  -3.13907
   D23        3.14159  -0.00000   0.00000   0.00033   0.00034  -3.14125
   D24       -0.00001  -0.00002   0.00000  -0.00057  -0.00056  -0.00058
   D25       -0.00008   0.00009   0.00000   0.00333   0.00335   0.00327
   D26        3.14152   0.00010   0.00000   0.00424   0.00426  -3.13741
   D27       -3.14158  -0.00003   0.00000  -0.00150  -0.00150   3.14010
   D28        0.00002  -0.00001   0.00000  -0.00060  -0.00059  -0.00057
         Item               Value     Threshold  Converged?
 Maximum Force            0.030044     0.000450     NO 
 RMS     Force            0.004365     0.000300     NO 
 Maximum Displacement     0.200873     0.001800     NO 
 RMS     Displacement     0.033764     0.001200     NO 
 Predicted change in Energy=-1.403584D-03
 GradGradGradGradGradGradGradGradGradGradGradGradGradGradGradGradGradGrad

                          Input orientation:                          
 ---------------------------------------------------------------------
 Center     Atomic      Atomic             Coordinates (Angstroms)
 Number     Number       Type             X           Y           Z
 ---------------------------------------------------------------------
      1          8           0        4.357664   -0.546276    0.205002
      2          6           0       -0.459676    0.064477   -0.032167
      3          6           0       -1.241695    1.223778    0.039409
      4          6           0       -1.075655   -1.192534   -0.059071
      5          6           0       -2.627563    1.122991    0.086969
      6          6           0       -2.462425   -1.285168   -0.019214
      7          6           0       -3.239235   -0.129666    0.055709
      8          6           0        0.966040    0.162745   -0.077238
      9          6           0        2.171212    0.219121   -0.105052
     10          6           0        3.612461    0.331365   -0.152547
     11          1           0       -0.760503    2.199259    0.060391
     12          1           0       -0.465096   -2.091336   -0.112165
     13          1           0       -3.232815    2.025391    0.145753
     14          1           0       -2.938723   -2.263239   -0.042263
     15          1           0       -4.324716   -0.205617    0.090709
     16          1           0        4.008824    1.258010   -0.607927
 ---------------------------------------------------------------------
                    Distance matrix (angstroms):
                    1          2          3          4          5
     1  O    0.000000
     2  C    4.861690   0.000000
     3  C    5.874805   1.400235   0.000000
     4  C    5.477986   1.400082   2.424012   0.000000
     5  C    7.182880   2.415446   1.390341   2.791308   0.000000
     6  C    6.863661   2.415101   2.790776   1.390432   2.416149
     7  C    7.609778   2.787716   2.412932   2.413284   1.394371
     8  C    3.476418   1.429809   2.452242   2.450639   3.723307
     9  C    2.337207   2.636437   3.560638   3.540767   4.886931
    10  C    1.205580   4.082648   4.939238   4.930460   6.294595
    11  H    5.809863   2.157860   1.087910   3.408497   2.155219
    12  H    5.074132   2.157303   3.408235   1.087863   3.879151
    13  H    8.014508   3.401050   2.149058   3.879476   1.088169
    14  H    7.499758   3.400594   3.878900   2.148887   3.402951
    15  H    8.689812   3.876414   3.398650   3.398947   2.155352
    16  H    2.009476   4.660848   5.290384   5.670832   6.674034
                    6          7          8          9         10
     6  C    0.000000
     7  C    1.394357   0.000000
     8  C    3.722122   4.217524   0.000000
     9  C    4.872458   5.424060   1.206811   0.000000
    10  C    6.287702   6.870346   2.652857   1.446393   0.000000
    11  H    3.878673   3.401180   2.673439   3.541648   4.759956
    12  H    2.155892   3.401790   2.670253   3.505479   4.743161
    13  H    3.403016   2.156947   4.598864   5.703422   7.058080
    14  H    1.088124   2.156859   4.597151   5.681329   7.047138
    15  H    2.155376   1.088698   5.306222   6.512742   7.959039
    16  H    6.977922   7.409481   3.277159   2.170020   1.105959
                   11         12         13         14         15
    11  H    0.000000
    12  H    4.304212   0.000000
    13  H    2.479887   4.967316   0.000000
    14  H    4.966797   2.480579   4.302812   0.000000
    15  H    4.299763   4.300438   2.484487   2.484445   0.000000
    16  H    4.907044   5.610691   7.321081   7.809455   8.489887
                   16
    16  H    0.000000
 Stoichiometry    C9H6O
 Framework group  C1[X(C9H6O)]
 Deg. of freedom    42
 Full point group                 C1      NOp   1
 Largest Abelian subgroup         C1      NOp   1
 Largest concise Abelian subgroup C1      NOp   1
                         Standard orientation:                         
 ---------------------------------------------------------------------
 Center     Atomic      Atomic             Coordinates (Angstroms)
 Number     Number       Type             X           Y           Z
 ---------------------------------------------------------------------
      1          8           0        4.342008    0.536049   -0.239052
      2          6           0       -0.474418   -0.068991    0.029276
      3          6           0       -1.258325   -1.227263   -0.038215
      4          6           0       -1.088651    1.188751    0.061392
      5          6           0       -2.644350   -1.124724   -0.076554
      6          6           0       -2.475537    1.283130    0.030755
      7          6           0       -3.254253    0.128655   -0.040114
      8          6           0        0.951441   -0.169057    0.064867
      9          6           0        2.156700   -0.226943    0.084691
     10          6           0        3.598090   -0.341006    0.122589
     11          1           0       -0.778490   -2.203315   -0.063262
     12          1           0       -0.476643    2.086751    0.111290
     13          1           0       -3.251092   -2.026324   -0.132180
     14          1           0       -2.950463    2.261765    0.057840
     15          1           0       -4.339847    0.205975   -0.067894
     16          1           0        3.996296   -1.268560    0.574497
 ---------------------------------------------------------------------
 Rotational constants (GHZ):           5.0973628           0.5610716           0.5072327
 Standard basis: 6-311++G(d,p) (5D, 7F)
 There are   272 symmetry adapted cartesian basis functions of A   symmetry.
 There are   262 symmetry adapted basis functions of A   symmetry.
   262 basis functions,   414 primitive gaussians,   272 cartesian basis functions
    34 alpha electrons       34 beta electrons
       nuclear repulsion energy       412.8442280487 Hartrees.
 NAtoms=   16 NActive=   16 NUniq=   16 SFac= 1.00D+00 NAtFMM=   60 NAOKFM=F Big=F
 Integral buffers will be    131072 words long.
 Raffenetti 2 integral format.
 Two-electron integral symmetry is turned on.
 R6APFD:  NTU= -4 IXU= 1 FactS= 1.050
 Nuclear repulsion after empirical dispersion term =      412.8378195740 Hartrees.
 One-electron integrals computed using PRISM.
 NBasis=   262 RedAO= T EigKep=  1.30D-06  NBF=   262
 NBsUse=   260 1.00D-06 EigRej=  1.81D-07 NBFU=   260
 Initial guess from the checkpoint file:  "PHPL0141.chk"
 B after Tr=     0.000000   -0.000000    0.000000
         Rot=    1.000000   -0.000323    0.000178    0.000848 Ang=  -0.11 deg.
 ExpMin= 3.60D-02 ExpMax= 8.59D+03 ExpMxC= 1.30D+03 IAcc=3 IRadAn=         5 AccDes= 0.00D+00
 Harris functional with IExCor= 1009 and IRadAn=       5 diagonalized for initial guess.
 HarFok:  IExCor= 1009 AccDes= 0.00D+00 IRadAn=         5 IDoV= 1 UseB2=F ITyADJ=14
 ICtDFT=  3500011 ScaDFX=  1.000000  1.000000  1.000000  1.000000
 FoFCou: FMM=F IPFlag=           0 FMFlag=      100000 FMFlg1=           0
         NFxFlg=           0 DoJE=T BraDBF=F KetDBF=T FulRan=T
         wScrn=  0.000000 ICntrl=       500 IOpCl=  0 I1Cent=   200000004 NGrid=           0
         NMat0=    1 NMatS0=      1 NMatT0=    0 NMatD0=    1 NMtDS0=    0 NMtDT0=    0
 Petite list used in FoFCou.
 Requested convergence on RMS density matrix=1.00D-08 within  32 cycles.
 Requested convergence on MAX density matrix=1.00D-06.
 Requested convergence on             energy=1.00D-06.
 No special actions if energy rises.
 SCF Done:  E(RM08HX) =  -421.696963877     A.U. after   15 cycles
            NFock= 15  Conv=0.47D-08     -V/T= 2.0045
 QCSCF skips out because SCF is already converged.
 R6APFD:  NTU= -4 IXU= 1 FactS= 1.050
 Calling FoFJK, ICntrl=      2127 FMM=F ISym2X=0 I1Cent= 0 IOpClX= 0 NMat=1 NMatS=1 NMatT=0.
 ***** Axes restored to original set *****
 -------------------------------------------------------------------
 Center     Atomic                   Forces (Hartrees/Bohr)
 Number     Number              X              Y              Z
 -------------------------------------------------------------------
      1        8          -0.003013919    0.004901188    0.000512089
      2        6           0.002025903    0.000578845   -0.000254237
      3        6          -0.002303725    0.001186245   -0.000135962
      4        6          -0.002053797   -0.001793891    0.000175092
      5        6           0.000575419   -0.000486443   -0.000108705
      6        6           0.000546757    0.000666739    0.000184058
      7        6           0.000105139   -0.000007479   -0.000017263
      8        6          -0.000300709   -0.000415312    0.000033667
      9        6          -0.001298427    0.002192356    0.001975718
     10        6           0.004595476   -0.010181801   -0.004256123
     11        1           0.000932450   -0.000437513   -0.000086557
     12        1           0.000930424    0.000608622    0.000015858
     13        1          -0.000058804    0.000031443    0.000037281
     14        1          -0.000042430   -0.000058382   -0.000041218
     15        1           0.000077787    0.000008404   -0.000014004
     16        1          -0.000717543    0.003206981    0.001980308
 -------------------------------------------------------------------
 Cartesian Forces:  Max     0.010181801 RMS     0.002160471

 GradGradGradGradGradGradGradGradGradGradGradGradGradGradGradGradGradGrad
 Berny optimization.
 Using GEDIIS/GDIIS optimizer.
 FormGI is forming the generalized inverse of G from B-inverse, IUseBI=4.
 Internal  Forces:  Max     0.005278109 RMS     0.001122142
 Search for a local minimum.
 Step number   2 out of a maximum of   79
 All quantities printed in internal units (Hartrees-Bohrs-Radians)
 Mixed Optimization -- RFO/linear search
 Update second derivatives using D2CorX and points    1    2
 DE= -1.40D-03 DEPred=-1.40D-03 R= 9.96D-01
 TightC=F SS=  1.41D+00  RLast= 2.20D-01 DXNew= 5.0454D-01 6.5874D-01
 Trust test= 9.96D-01 RLast= 2.20D-01 DXMaxT set to 5.05D-01
 ITU=  1  0
 Use linear search instead of GDIIS.
     Eigenvalues ---    0.00171   0.00405   0.01304   0.01670   0.01680
     Eigenvalues ---    0.02155   0.02155   0.02156   0.02156   0.02157
     Eigenvalues ---    0.02157   0.02158   0.02168   0.04039   0.04652
     Eigenvalues ---    0.14695   0.16000   0.16000   0.16000   0.16000
     Eigenvalues ---    0.17091   0.21121   0.22000   0.22004   0.23481
     Eigenvalues ---    0.25001   0.33201   0.35103   0.35116   0.35264
     Eigenvalues ---    0.35269   0.35302   0.39456   0.41215   0.42065
     Eigenvalues ---    0.42145   0.46019   0.46460   0.46482   0.46488
     Eigenvalues ---    0.84153   1.03875
 RFO step:  Lambda=-4.91718792D-03 EMin= 1.71016536D-03
 Quartic linear search produced a step of  0.04379.
 Iteration  1 RMS(Cart)=  0.05059488 RMS(Int)=  0.04504030
 Iteration  2 RMS(Cart)=  0.03733918 RMS(Int)=  0.01795393
 Iteration  3 RMS(Cart)=  0.01100536 RMS(Int)=  0.01516011
 Iteration  4 RMS(Cart)=  0.00051146 RMS(Int)=  0.01515206
 Iteration  5 RMS(Cart)=  0.00003300 RMS(Int)=  0.01515203
 Iteration  6 RMS(Cart)=  0.00000236 RMS(Int)=  0.01515203
 Iteration  7 RMS(Cart)=  0.00000019 RMS(Int)=  0.01515203
 Variable       Old X    -DE/DX   Delta X   Delta X   Delta X     New X
                                 (Linear)    (Quad)   (Total)
    R1        2.27822  -0.00528  -0.00139  -0.06567  -0.06706   2.21116
    R2        2.64606   0.00065   0.00043   0.01997   0.02033   2.66639
    R3        2.64577   0.00074   0.00043   0.02012   0.02062   2.66639
    R4        2.70195  -0.00077   0.00008   0.00138   0.00143   2.70338
    R5        2.62736  -0.00058  -0.00037  -0.01703  -0.01738   2.60998
    R6        2.05585   0.00003   0.00003   0.00153   0.00116   2.05701
    R7        2.62753  -0.00062  -0.00038  -0.01751  -0.01789   2.60964
    R8        2.05576   0.00002   0.00004   0.00173   0.00177   2.05754
    R9        2.63498  -0.00004  -0.00003  -0.00153  -0.00163   2.63335
   R10        2.05634   0.00006   0.00017   0.00751   0.00768   2.06402
   R11        2.63495  -0.00005  -0.00005  -0.00226  -0.00239   2.63256
   R12        2.05626   0.00007   0.00017   0.00747   0.00764   2.06390
   R13        2.05734  -0.00008   0.00022   0.00904   0.00926   2.06660
   R14        2.28054  -0.00044   0.00034   0.01425   0.01468   2.29522
   R15        2.73329   0.00076   0.00065   0.02963   0.03067   2.76396
   R16        2.08996   0.00161   0.00040   0.02173   0.02213   2.11209
    A1        2.09278  -0.00004  -0.00007  -0.00273  -0.00311   2.08967
    A2        2.09624   0.00031   0.00008   0.00453   0.00533   2.10158
    A3        2.09416  -0.00027  -0.00001  -0.00180  -0.00223   2.09194
    A4        2.09258  -0.00014  -0.00009  -0.00410  -0.00404   2.08853
    A5        2.09016  -0.00099  -0.00085  -0.04211  -0.04299   2.04718
    A6        2.10044   0.00113   0.00094   0.04620   0.04701   2.14745
    A7        2.09216  -0.00018  -0.00010  -0.00472  -0.00467   2.08749
    A8        2.08954  -0.00105  -0.00089  -0.04405  -0.04501   2.04453
    A9        2.10148   0.00123   0.00098   0.04877   0.04968   2.15116
   A10        2.09626   0.00005   0.00008   0.00366   0.00376   2.10003
   A11        2.08996   0.00001  -0.00020  -0.00835  -0.00857   2.08139
   A12        2.09696  -0.00006   0.00012   0.00469   0.00479   2.10175
   A13        2.09667   0.00008   0.00010   0.00462   0.00472   2.10140
   A14        2.08961  -0.00003  -0.00022  -0.00929  -0.00952   2.08009
   A15        2.09689  -0.00005   0.00012   0.00465   0.00476   2.10165
   A16        2.09589   0.00022   0.00006   0.00320   0.00320   2.09908
   A17        2.09362  -0.00012  -0.00003  -0.00183  -0.00183   2.09178
   A18        2.09368  -0.00011  -0.00002  -0.00137  -0.00136   2.09231
   A19        2.15280   0.00158   0.00188   0.09866   0.03626   2.18906
   A20        2.10661   0.00088  -0.00200  -0.05944  -0.13655   1.97006
   A21        2.02156  -0.00200   0.00003   0.00799  -0.05865   1.96291
   A22        3.11984  -0.00079  -0.00094  -0.05186  -0.04919   3.07066
   A23        3.11105   0.00190  -0.00130   0.04768   0.03859   3.14964
   A24        3.15300  -0.00137   0.00048  -0.01552  -0.00827   3.14472
   A25        3.15969   0.00242   0.00077   0.15007   0.13850   3.29819
    D1        0.00284  -0.00020   0.00012   0.00221   0.00374   0.00658
    D2        3.14137  -0.00014  -0.00001  -0.00073   0.00051  -3.14131
    D3       -3.13832   0.00024   0.00014   0.00793   0.00637  -3.13195
    D4        0.00021   0.00031   0.00001   0.00499   0.00314   0.00335
    D5        0.00383   0.00017   0.00017   0.00669   0.00543   0.00926
    D6       -3.13890   0.00018   0.00011   0.00599   0.00495  -3.13396
    D7       -3.13820  -0.00028   0.00015   0.00099   0.00282  -3.13538
    D8        0.00226  -0.00026   0.00009   0.00029   0.00233   0.00459
    D9        2.71180  -0.00166   0.00548  -0.19744  -0.17761   2.53419
   D10       -0.49883   0.00350   0.00245   0.46550   0.44656  -0.05227
   D11       -0.42684  -0.00267   0.00561  -0.23887  -0.21171  -0.63855
   D12        2.64571   0.00249   0.00257   0.42407   0.41246   3.05817
   D13       -0.00646   0.00010  -0.00028  -0.00812  -0.00896  -0.01542
   D14        3.13821   0.00006  -0.00015  -0.00458  -0.00514   3.13308
   D15        3.13821   0.00004  -0.00015  -0.00500  -0.00537   3.13284
   D16       -0.00030  -0.00000  -0.00001  -0.00147  -0.00155  -0.00184
   D17       -0.00688  -0.00003  -0.00030  -0.00971  -0.00942  -0.01630
   D18        3.13946  -0.00005  -0.00009  -0.00368  -0.00338   3.13608
   D19        3.13586  -0.00005  -0.00025  -0.00894  -0.00884   3.12702
   D20       -0.00099  -0.00006  -0.00004  -0.00292  -0.00279  -0.00379
   D21        0.00344   0.00003   0.00015   0.00517   0.00510   0.00853
   D22       -3.13907  -0.00002   0.00011   0.00341   0.00364  -3.13543
   D23       -3.14125   0.00008   0.00001   0.00160   0.00121  -3.14005
   D24       -0.00058   0.00003  -0.00002  -0.00016  -0.00025  -0.00083
   D25        0.00327  -0.00006   0.00015   0.00386   0.00432   0.00758
   D26       -3.13741  -0.00001   0.00019   0.00562   0.00577  -3.13163
   D27        3.14010  -0.00005  -0.00007  -0.00222  -0.00184   3.13826
   D28       -0.00057   0.00000  -0.00003  -0.00046  -0.00039  -0.00096
         Item               Value     Threshold  Converged?
 Maximum Force            0.005278     0.000450     NO 
 RMS     Force            0.001122     0.000300     NO 
 Maximum Displacement     0.417050     0.001800     NO 
 RMS     Displacement     0.075184     0.001200     NO 
 Predicted change in Energy=-2.955800D-03
 GradGradGradGradGradGradGradGradGradGradGradGradGradGradGradGradGradGrad

                          Input orientation:                          
 ---------------------------------------------------------------------
 Center     Atomic      Atomic             Coordinates (Angstroms)
 Number     Number       Type             X           Y           Z
 ---------------------------------------------------------------------
      1          8           0        4.361557   -0.547148    0.172117
      2          6           0       -0.470611    0.094936   -0.040745
      3          6           0       -1.277676    1.250547    0.023367
      4          6           0       -1.074196   -1.180404   -0.050466
      5          6           0       -2.651519    1.122321    0.083936
      6          6           0       -2.450611   -1.284079   -0.008172
      7          6           0       -3.241909   -0.139776    0.063411
      8          6           0        0.954486    0.208858   -0.092100
      9          6           0        2.168271    0.219478   -0.134640
     10          6           0        3.619819    0.215986   -0.314267
     11          1           0       -0.770717    2.213798    0.028346
     12          1           0       -0.411530   -2.043259   -0.093382
     13          1           0       -3.269474    2.021095    0.141475
     14          1           0       -2.910662   -2.274541   -0.021266
     15          1           0       -4.330771   -0.232115    0.105919
     16          1           0        4.043642    1.247602   -0.387233
 ---------------------------------------------------------------------
                    Distance matrix (angstroms):
                    1          2          3          4          5
     1  O    0.000000
     2  C    4.879286   0.000000
     3  C    5.920708   1.410993   0.000000
     4  C    5.477039   1.410992   2.440569   0.000000
     5  C    7.209586   2.414006   1.381142   2.794379   0.000000
     6  C    6.854283   2.413119   2.793045   1.380962   2.416529
     7  C    7.615146   2.783168   2.406825   2.407250   1.393510
     8  C    3.499926   1.430566   2.465968   2.459132   3.724067
     9  C    2.343569   2.643488   3.600365   3.532753   4.908491
    10  C    1.170093   4.101352   5.016948   4.904413   6.348991
    11  H    5.829556   2.141124   1.088524   3.408653   2.175277
    12  H    5.009111   2.139659   3.407785   1.088801   3.881996
    13  H    8.051673   3.402488   2.138914   3.886603   1.092234
    14  H    7.477061   3.401271   3.885213   2.137895   3.408356
    15  H    8.698286   3.876764   3.395068   3.395436   2.157514
    16  H    1.906586   4.671956   5.337137   5.674582   6.712889
                    6          7          8          9         10
     6  C    0.000000
     7  C    1.393093   0.000000
     8  C    3.718950   4.213723   0.000000
     9  C    4.859089   5.425710   1.214577   0.000000
    10  C    6.260512   6.881316   2.674585   1.462624   0.000000
    11  H    3.880531   3.412818   2.647757   3.555492   4.835849
    12  H    2.177491   3.414510   2.634015   3.431772   4.626527
    13  H    3.408388   2.162456   4.602239   5.735080   7.136419
    14  H    1.092169   2.161970   4.594742   5.659377   6.995409
    15  H    2.157463   1.093597   5.307316   6.519153   7.974285
    16  H    6.980574   7.430151   3.272457   2.153569   1.117668
                   11         12         13         14         15
    11  H    0.000000
    12  H    4.273917   0.000000
    13  H    2.508729   4.974131   0.000000
    14  H    4.972626   2.510847   4.313666   0.000000
    15  H    4.320010   4.322084   2.490898   2.490861   0.000000
    16  H    4.927909   5.546591   7.372889   7.803958   8.518424
                   16
    16  H    0.000000
 Stoichiometry    C9H6O
 Framework group  C1[X(C9H6O)]
 Deg. of freedom    42
 Full point group                 C1      NOp   1
 Largest Abelian subgroup         C1      NOp   1
 Largest concise Abelian subgroup C1      NOp   1
                         Standard orientation:                         
 ---------------------------------------------------------------------
 Center     Atomic      Atomic             Coordinates (Angstroms)
 Number     Number       Type             X           Y           Z
 ---------------------------------------------------------------------
      1          8           0        4.352082    0.505244   -0.263370
      2          6           0       -0.481427   -0.096757    0.023348
      3          6           0       -1.299406   -1.244981   -0.034936
      4          6           0       -1.073700    1.183619    0.050729
      5          6           0       -2.672881   -1.104606   -0.072554
      6          6           0       -2.449666    1.299350    0.031270
      7          6           0       -3.251902    0.162346   -0.034667
      8          6           0        0.943270   -0.223209    0.051017
      9          6           0        2.157444   -0.244498    0.073923
     10          6           0        3.611665   -0.254585    0.230150
     11          1           0       -0.800961   -2.212488   -0.054076
     12          1           0       -0.402975    2.040475    0.088325
     13          1           0       -3.299448   -1.997669   -0.125716
     14          1           0       -2.900844    2.293613    0.057937
     15          1           0       -4.340464    0.264279   -0.059045
     16          1           0        4.027647   -1.290237    0.289857
 ---------------------------------------------------------------------
 Rotational constants (GHZ):           5.0958088           0.5585421           0.5054808
 Standard basis: 6-311++G(d,p) (5D, 7F)
 There are   272 symmetry adapted cartesian basis functions of A   symmetry.
 There are   262 symmetry adapted basis functions of A   symmetry.
   262 basis functions,   414 primitive gaussians,   272 cartesian basis functions
    34 alpha electrons       34 beta electrons
       nuclear repulsion energy       412.8880869889 Hartrees.
 NAtoms=   16 NActive=   16 NUniq=   16 SFac= 1.00D+00 NAtFMM=   60 NAOKFM=F Big=F
 Integral buffers will be    131072 words long.
 Raffenetti 2 integral format.
 Two-electron integral symmetry is turned on.
 R6APFD:  NTU= -4 IXU= 1 FactS= 1.050
 Nuclear repulsion after empirical dispersion term =      412.8817028723 Hartrees.
 One-electron integrals computed using PRISM.
 NBasis=   262 RedAO= T EigKep=  1.34D-06  NBF=   262
 NBsUse=   260 1.00D-06 EigRej=  2.21D-07 NBFU=   260
 Initial guess from the checkpoint file:  "PHPL0141.chk"
 B after Tr=    -0.000000   -0.000000   -0.000000
         Rot=    0.999996    0.001535   -0.000111    0.002248 Ang=   0.31 deg.
 ExpMin= 3.60D-02 ExpMax= 8.59D+03 ExpMxC= 1.30D+03 IAcc=3 IRadAn=         5 AccDes= 0.00D+00
 Harris functional with IExCor= 1009 and IRadAn=       5 diagonalized for initial guess.
 HarFok:  IExCor= 1009 AccDes= 0.00D+00 IRadAn=         5 IDoV= 1 UseB2=F ITyADJ=14
 ICtDFT=  3500011 ScaDFX=  1.000000  1.000000  1.000000  1.000000
 FoFCou: FMM=F IPFlag=           0 FMFlag=      100000 FMFlg1=           0
         NFxFlg=           0 DoJE=T BraDBF=F KetDBF=T FulRan=T
         wScrn=  0.000000 ICntrl=       500 IOpCl=  0 I1Cent=   200000004 NGrid=           0
         NMat0=    1 NMatS0=      1 NMatT0=    0 NMatD0=    1 NMtDS0=    0 NMtDT0=    0
 Petite list used in FoFCou.
 Requested convergence on RMS density matrix=1.00D-08 within  32 cycles.
 Requested convergence on MAX density matrix=1.00D-06.
 Requested convergence on             energy=1.00D-06.
 No special actions if energy rises.
 SCF Done:  E(RM08HX) =  -421.677508620     A.U. after   15 cycles
            NFock= 15  Conv=0.70D-08     -V/T= 2.0043
 QCSCF skips out because SCF is already converged.
 R6APFD:  NTU= -4 IXU= 1 FactS= 1.050
 Calling FoFJK, ICntrl=      2127 FMM=F ISym2X=0 I1Cent= 0 IOpClX= 0 NMat=1 NMatS=1 NMatT=0.
 ***** Axes restored to original set *****
 -------------------------------------------------------------------
 Center     Atomic                   Forces (Hartrees/Bohr)
 Number     Number              X              Y              Z
 -------------------------------------------------------------------
      1        8           0.033767219   -0.066847982    0.006294830
      2        6          -0.007177270    0.002777259    0.002174309
      3        6           0.015390065   -0.008339469   -0.000784423
      4        6           0.014743092    0.010404436   -0.000297893
      5        6          -0.006995634    0.005144496   -0.000207795
      6        6          -0.005815676   -0.006565975    0.000498929
      7        6          -0.004472320    0.000038783    0.000286441
      8        6           0.012304335   -0.002977634   -0.001673312
      9        6          -0.012981690   -0.013940686   -0.018660528
     10        6          -0.029193168    0.078598795    0.040642184
     11        1          -0.003552540    0.001480876    0.000286185
     12        1          -0.003463677   -0.001988706   -0.000011891
     13        1           0.000403535   -0.002699905   -0.000133278
     14        1          -0.000063478    0.002685073    0.000022545
     15        1           0.003426237    0.000252519   -0.000164967
     16        1          -0.006319031    0.001978121   -0.028271335
 -------------------------------------------------------------------
 Cartesian Forces:  Max     0.078598795 RMS     0.018805089

 GradGradGradGradGradGradGradGradGradGradGradGradGradGradGradGradGradGrad
 Berny optimization.
 Using GEDIIS/GDIIS optimizer.
 FormGI is forming the generalized inverse of G from B-inverse, IUseBI=4.
 Internal  Forces:  Max     0.067623258 RMS     0.011282505
 Search for a local minimum.
 Step number   3 out of a maximum of   79
 All quantities printed in internal units (Hartrees-Bohrs-Radians)
 Mixed Optimization -- RFO/linear search
 Update second derivatives using D2CorX and points    1    3    2
 DE=  1.95D-02 DEPred=-2.96D-03 R=-6.58D+00
 Trust test=-6.58D+00 RLast= 7.14D-01 DXMaxT set to 2.52D-01
 ITU= -1  1  0
 Use linear search instead of GDIIS.
     Eigenvalues ---    0.00217   0.01161   0.01447   0.01675   0.02155
     Eigenvalues ---    0.02155   0.02156   0.02156   0.02157   0.02157
     Eigenvalues ---    0.02158   0.02160   0.03646   0.04617   0.11221
     Eigenvalues ---    0.14659   0.15999   0.16000   0.16000   0.16003
     Eigenvalues ---    0.16933   0.21725   0.22000   0.22007   0.23470
     Eigenvalues ---    0.25002   0.33017   0.35104   0.35117   0.35266
     Eigenvalues ---    0.35270   0.35333   0.39359   0.41195   0.42130
     Eigenvalues ---    0.42170   0.46207   0.46460   0.46485   0.46490
     Eigenvalues ---    0.91527   1.04166
 RFO step:  Lambda=-2.80674140D-04 EMin= 2.16592932D-03
 Quartic linear search produced a step of -0.90773.
 Iteration  1 RMS(Cart)=  0.05007360 RMS(Int)=  0.02695102
 Iteration  2 RMS(Cart)=  0.02313190 RMS(Int)=  0.00200896
 Iteration  3 RMS(Cart)=  0.00200334 RMS(Int)=  0.00091034
 Iteration  4 RMS(Cart)=  0.00000266 RMS(Int)=  0.00091033
 Iteration  5 RMS(Cart)=  0.00000000 RMS(Int)=  0.00091033
 Variable       Old X    -DE/DX   Delta X   Delta X   Delta X     New X
                                 (Linear)    (Quad)   (Total)
    R1        2.21116   0.06762   0.06087  -0.00072   0.06015   2.27131
    R2        2.66639  -0.00645  -0.01845   0.00065  -0.01780   2.64859
    R3        2.66639  -0.00625  -0.01872   0.00087  -0.01784   2.64855
    R4        2.70338  -0.00257  -0.00130  -0.00217  -0.00346   2.69991
    R5        2.60998   0.00675   0.01578  -0.00036   0.01542   2.62540
    R6        2.05701  -0.00096  -0.00105  -0.00013  -0.00119   2.05582
    R7        2.60964   0.00676   0.01624  -0.00045   0.01579   2.62543
    R8        2.05754  -0.00053  -0.00161  -0.00004  -0.00165   2.05589
    R9        2.63335   0.00001   0.00148  -0.00014   0.00134   2.63469
   R10        2.06402  -0.00246  -0.00697  -0.00023  -0.00720   2.05682
   R11        2.63256   0.00042   0.00217  -0.00009   0.00208   2.63464
   R12        2.06390  -0.00241  -0.00694  -0.00019  -0.00713   2.05677
   R13        2.06660  -0.00344  -0.00840  -0.00078  -0.00918   2.05742
   R14        2.29522  -0.01454  -0.01332  -0.00117  -0.01449   2.28073
   R15        2.76396  -0.00356  -0.02784   0.00183  -0.02601   2.73795
   R16        2.11209   0.00127  -0.02009   0.00528  -0.01481   2.09728
    A1        2.08967   0.00111   0.00282   0.00019   0.00302   2.09268
    A2        2.10158   0.00120  -0.00484   0.00165  -0.00318   2.09839
    A3        2.09194  -0.00231   0.00202  -0.00185   0.00017   2.09211
    A4        2.08853   0.00112   0.00367  -0.00020   0.00347   2.09200
    A5        2.04718   0.00346   0.03902  -0.00487   0.03415   2.08132
    A6        2.14745  -0.00458  -0.04268   0.00508  -0.03759   2.10986
    A7        2.08749   0.00104   0.00424  -0.00038   0.00385   2.09134
    A8        2.04453   0.00355   0.04086  -0.00526   0.03560   2.08013
    A9        2.15116  -0.00459  -0.04510   0.00565  -0.03945   2.11171
   A10        2.10003  -0.00107  -0.00342  -0.00013  -0.00355   2.09648
   A11        2.08139   0.00177   0.00778   0.00073   0.00851   2.08990
   A12        2.10175  -0.00070  -0.00435  -0.00059  -0.00494   2.09680
   A13        2.10140  -0.00111  -0.00429   0.00004  -0.00426   2.09714
   A14        2.08009   0.00178   0.00864   0.00053   0.00917   2.08926
   A15        2.10165  -0.00067  -0.00432  -0.00055  -0.00487   2.09678
   A16        2.09908  -0.00109  -0.00290   0.00053  -0.00238   2.09671
   A17        2.09178   0.00058   0.00167  -0.00027   0.00140   2.09318
   A18        2.09231   0.00051   0.00124  -0.00026   0.00098   2.09330
   A19        2.18906  -0.00278  -0.03291   0.00460  -0.02397   2.16509
   A20        1.97006   0.02327   0.12395   0.01016   0.13846   2.10852
   A21        1.96291   0.00933   0.05324  -0.01097   0.04661   2.00952
   A22        3.07066   0.01063   0.04465   0.00473   0.04937   3.12003
   A23        3.14964  -0.01608  -0.03503   0.01118  -0.02385   3.12579
   A24        3.14472   0.01293   0.00751  -0.00154   0.00630   3.15103
   A25        3.29819  -0.01914  -0.12572   0.02199  -0.10388   3.19431
    D1        0.00658   0.00135  -0.00340  -0.00106  -0.00456   0.00202
    D2       -3.14131   0.00117  -0.00046   0.00045  -0.00009  -3.14140
    D3       -3.13195  -0.00214  -0.00578  -0.00043  -0.00608  -3.13803
    D4        0.00335  -0.00232  -0.00285   0.00108  -0.00161   0.00174
    D5        0.00926  -0.00161  -0.00493  -0.00134  -0.00616   0.00309
    D6       -3.13396  -0.00126  -0.00449   0.00090  -0.00345  -3.13741
    D7       -3.13538   0.00187  -0.00256  -0.00196  -0.00465  -3.14003
    D8        0.00459   0.00222  -0.00212   0.00028  -0.00194   0.00265
    D9        2.53419   0.01915   0.16122   0.15364   0.31514   2.84934
   D10       -0.05227  -0.02624  -0.40536   0.13486  -0.27026  -0.32254
   D11       -0.63855   0.02707   0.19217   0.14858   0.34052  -0.29803
   D12        3.05817  -0.01831  -0.37441   0.12980  -0.24489   2.81329
   D13       -0.01542  -0.00034   0.00813   0.00213   0.01031  -0.00512
   D14        3.13308  -0.00032   0.00466   0.00055   0.00523   3.13830
   D15        3.13284  -0.00018   0.00487   0.00057   0.00549   3.13833
   D16       -0.00184  -0.00016   0.00140  -0.00102   0.00041  -0.00143
   D17       -0.01630   0.00085   0.00855   0.00268   0.01118  -0.00512
   D18        3.13608   0.00047   0.00306   0.00032   0.00334   3.13942
   D19        3.12702   0.00047   0.00802   0.00030   0.00834   3.13537
   D20       -0.00379   0.00009   0.00254  -0.00205   0.00050  -0.00328
   D21        0.00853  -0.00045  -0.00463  -0.00081  -0.00542   0.00312
   D22       -3.13543  -0.00004  -0.00330  -0.00075  -0.00406  -3.13949
   D23       -3.14005  -0.00047  -0.00110   0.00080  -0.00026  -3.14031
   D24       -0.00083  -0.00005   0.00023   0.00086   0.00109   0.00027
   D25        0.00758   0.00014  -0.00392  -0.00162  -0.00555   0.00203
   D26       -3.13163  -0.00027  -0.00524  -0.00168  -0.00691  -3.13854
   D27        3.13826   0.00054   0.00167   0.00076   0.00241   3.14067
   D28       -0.00096   0.00013   0.00035   0.00071   0.00105   0.00009
         Item               Value     Threshold  Converged?
 Maximum Force            0.067623     0.000450     NO 
 RMS     Force            0.011283     0.000300     NO 
 Maximum Displacement     0.276491     0.001800     NO 
 RMS     Displacement     0.061121     0.001200     NO 
 Predicted change in Energy=-1.641439D-04
 GradGradGradGradGradGradGradGradGradGradGradGradGradGradGradGradGradGrad

                          Input orientation:                          
 ---------------------------------------------------------------------
 Center     Atomic      Atomic             Coordinates (Angstroms)
 Number     Number       Type             X           Y           Z
 ---------------------------------------------------------------------
      1          8           0        4.358742   -0.597566    0.068429
      2          6           0       -0.460860    0.068739   -0.027609
      3          6           0       -1.246698    1.227892    0.029255
      4          6           0       -1.074441   -1.191262   -0.043722
      5          6           0       -2.631413    1.123486    0.071885
      6          6           0       -2.460066   -1.285587   -0.006951
      7          6           0       -3.239373   -0.131040    0.052013
      8          6           0        0.963945    0.166881   -0.067322
      9          6           0        2.169265    0.223595   -0.092257
     10          6           0        3.613248    0.315115   -0.167954
     11          1           0       -0.759363    2.200455    0.041080
     12          1           0       -0.453091   -2.083389   -0.084021
     13          1           0       -3.239678    2.024843    0.119122
     14          1           0       -2.934566   -2.264995   -0.021598
     15          1           0       -4.324841   -0.209220    0.083563
     16          1           0        4.007289    1.305351   -0.477614
 ---------------------------------------------------------------------
                    Distance matrix (angstroms):
                    1          2          3          4          5
     1  O    0.000000
     2  C    4.866390   0.000000
     3  C    5.895319   1.401574   0.000000
     4  C    5.466675   1.401551   2.426376   0.000000
     5  C    7.198909   2.415303   1.389300   2.792057   0.000000
     6  C    6.853845   2.414840   2.791263   1.389318   2.416445
     7  C    7.612441   2.786823   2.412046   2.412502   1.394218
     8  C    3.482449   1.428733   2.453979   2.449516   3.723046
     9  C    2.343915   2.635472   3.562608   3.539181   4.887049
    10  C    1.201926   4.083962   4.948850   4.925346   6.301331
    11  H    5.833067   2.153610   1.087895   3.407376   2.159949
    12  H    5.038318   2.152881   3.406937   1.087930   3.879876
    13  H    8.038382   3.401427   2.148297   3.880477   1.088423
    14  H    7.482030   3.400820   3.879657   2.147896   3.403299
    15  H    8.692276   3.875561   3.397529   3.397897   2.154980
    16  H    2.010666   4.657904   5.278948   5.678496   6.663886
                    6          7          8          9         10
     6  C    0.000000
     7  C    1.394194   0.000000
     8  C    3.719833   4.215552   0.000000
     9  C    4.869867   5.422171   1.206910   0.000000
    10  C    6.282778   6.870651   2.655354   1.448859   0.000000
    11  H    3.879070   3.403885   2.667765   3.535904   4.766333
    12  H    2.161105   3.404929   2.659320   3.492705   4.721755
    13  H    3.403328   2.156927   4.599699   5.704896   7.068817
    14  H    1.088396   2.156871   4.595052   5.678658   7.039336
    15  H    2.155028   1.088737   5.304289   6.510887   7.959362
    16  H    6.982919   7.406607   3.275117   2.167263   1.109831
                   11         12         13         14         15
    11  H    0.000000
    12  H    4.296600   0.000000
    13  H    2.487748   4.968290   0.000000
    14  H    4.967462   2.488895   4.302977   0.000000
    15  H    4.303599   4.304770   2.483925   2.483976   0.000000
    16  H    4.877625   5.615466   7.307003   7.819506   8.487239
                   16
    16  H    0.000000
 Stoichiometry    C9H6O
 Framework group  C1[X(C9H6O)]
 Deg. of freedom    42
 Full point group                 C1      NOp   1
 Largest Abelian subgroup         C1      NOp   1
 Largest concise Abelian subgroup C1      NOp   1
                         Standard orientation:                         
 ---------------------------------------------------------------------
 Center     Atomic      Atomic             Coordinates (Angstroms)
 Number     Number       Type             X           Y           Z
 ---------------------------------------------------------------------
      1          8           0        4.346141    0.560798   -0.154768
      2          6           0       -0.475372   -0.076148    0.015722
      3          6           0       -1.269008   -1.230537   -0.028274
      4          6           0       -1.080977    1.187568    0.040390
      5          6           0       -2.653556   -1.117743   -0.049708
      6          6           0       -2.466405    1.290290    0.024836
      7          6           0       -3.253516    0.140465   -0.021363
      8          6           0        0.949254   -0.182923    0.033619
      9          6           0        2.154448   -0.246946    0.040082
     10          6           0        3.598841   -0.347195    0.093661
     11          1           0       -0.787823   -2.206051   -0.046914
     12          1           0       -0.453679    2.075926    0.070533
     13          1           0       -3.267933   -2.015415   -0.086981
     14          1           0       -2.934673    2.272572    0.046096
     15          1           0       -4.338847    0.225222   -0.036295
     16          1           0        3.991577   -1.339624    0.397912
 ---------------------------------------------------------------------
 Rotational constants (GHZ):           5.0990840           0.5613475           0.5064579
 Standard basis: 6-311++G(d,p) (5D, 7F)
 There are   272 symmetry adapted cartesian basis functions of A   symmetry.
 There are   262 symmetry adapted basis functions of A   symmetry.
   262 basis functions,   414 primitive gaussians,   272 cartesian basis functions
    34 alpha electrons       34 beta electrons
       nuclear repulsion energy       412.8348735972 Hartrees.
 NAtoms=   16 NActive=   16 NUniq=   16 SFac= 1.00D+00 NAtFMM=   60 NAOKFM=F Big=F
 Integral buffers will be    131072 words long.
 Raffenetti 2 integral format.
 Two-electron integral symmetry is turned on.
 R6APFD:  NTU= -4 IXU= 1 FactS= 1.050
 Nuclear repulsion after empirical dispersion term =      412.8284636882 Hartrees.
 One-electron integrals computed using PRISM.
 NBasis=   262 RedAO= T EigKep=  1.29D-06  NBF=   262
 NBsUse=   260 1.00D-06 EigRej=  1.82D-07 NBFU=   260
 Lowest energy guess from the checkpoint file:  "PHPL0141.chk"
 B after Tr=     0.000000    0.000000   -0.000000
         Rot=    0.999998   -0.001608   -0.000010    0.000809 Ang=  -0.21 deg.
 B after Tr=     0.000000    0.000000    0.000000
         Rot=    0.999995   -0.002985    0.000086   -0.001438 Ang=  -0.38 deg.
 Requested convergence on RMS density matrix=1.00D-08 within  32 cycles.
 Requested convergence on MAX density matrix=1.00D-06.
 Requested convergence on             energy=1.00D-06.
 No special actions if energy rises.
 SCF Done:  E(RM08HX) =  -421.697410038     A.U. after   14 cycles
[...]

 ----------------------------------------------------------------------

 Dipole orientation:
     8          0.78079416          2.07571743         -8.03212911
     6         -0.17772557         -0.18416767          0.84078863
     6          0.38002082          1.12916010          3.07209644
     6         -1.21150437         -2.62001379          0.96416251
     6         -0.09399894          0.01141831          5.39994769
     6         -1.67945162         -3.72339309          3.30001400
     6         -1.12243634         -2.41178542          5.51654553
     6          0.30342780          0.95036451         -1.55999542
     6          0.69135023          1.86519425         -3.61273982
     6          1.19534882          3.05335925         -6.02496451
     1          1.18186907          3.01848387          2.95137990
     1         -1.63499791         -3.61723324         -0.78308929
     1          0.33949349          1.03215374          7.13183623
     1         -2.48203379         -5.61443852          3.39430453
     1         -1.49157821         -3.28221548          7.34358212
     1          2.01261929          4.98010371         -5.90095301

 Electric dipole moment (dipole orientation):
 (Debye = 10**-18 statcoulomb cm , SI units = C m)
                  (au)            (Debye)         (10**-30 SI)
   Tot        0.173331D+01      0.440563D+01      0.146956D+02
   x          0.000000D+00      0.000000D+00      0.000000D+00
   y          0.000000D+00      0.000000D+00      0.000000D+00
   z          0.173331D+01      0.440563D+01      0.146956D+02

 Dipole polarizability, Alpha (dipole orientation).
 (esu units = cm**3 , SI units = C**2 m**2 J**-1)
 Alpha(0;0):
               (au)            (10**-24 esu)      (10**-40 SI)
   iso        0.113736D+03      0.168539D+02      0.187525D+02
   aniso      0.116571D+03      0.172741D+02      0.192200D+02
   xx         0.638285D+02      0.945841D+01      0.105239D+02
   yx         0.205145D+02      0.303994D+01      0.338239D+01
   yy         0.103473D+03      0.153332D+02      0.170605D+02
   zx        -0.123455D+02     -0.182941D+01     -0.203549D+01
   zy        -0.291230D+02     -0.431558D+01     -0.480173D+01
   zz         0.173905D+03      0.257701D+02      0.286731D+02

 ----------------------------------------------------------------------
 1\1\GINC-PITOMBA\Freq\RM08HX\6-311++G(d,p)\C9H6O1\VALTER\21-Sep-2025\0
 \\#N Geom=AllCheck Guess=TCheck SCRF=Check GenChk RM08HX/6-311++G(d,p)
  Freq\\PHPL0141\\0,1\O,4.3617857934,-0.617444252,-0.1921012456\C,-0.45
 97880994,0.0614748242,-0.0334376534\C,-1.2414501198,1.2243849786,-0.00
 26930203\C,-1.0773457049,-1.1968813181,-0.0193996678\C,-2.626562217,1.
 125799038,0.0416137523\C,-2.4630525072,-1.2862121292,0.0249580379\C,-3
 .2379405615,-0.1273239577,0.0554653773\C,0.964548416,0.1535412913,-0.0
 790337377\C,2.1697507882,0.2031321256,-0.1177666961\C,3.6119250014,0.3
 210818419,-0.1637762433\H,-0.7503114753,2.1951359567,-0.0139894624\H,-
 0.4581115858,-2.0910591743,-0.0436203612\H,-3.2329576628,2.0291412567,
 0.0654727674\H,-2.9417665215,-2.2634420512,0.0358228114\H,-4.323493611
 2,-0.2010944209,0.0902034129\H,3.9928700674,1.3630659903,-0.1714180712
 \\Version=ES64L-G16RevB.01\State=1-A\HF=-421.6976212\RMSD=6.184e-09\RM
 SF=2.711e-06\ZeroPoint=0.1197814\Thermal=0.1284412\Dipole=-1.5889193,0
 .6904646,0.0543608\DipoleDeriv=-1.3402796,0.213686,0.0331331,0.6583623
 ,-0.7400507,-0.0230123,0.0351038,-0.0086469,-0.3444751,-0.1149653,-0.0
 078418,0.0042446,-0.0140291,0.0640855,0.000666,0.0042053,0.0004834,0.0
 174264,0.0137482,0.1043583,-0.0036988,-0.1015012,0.0223738,0.0039312,-
 0.0046415,-0.0027216,-0.1157786,-0.0001519,-0.1061637,-0.0041987,0.098
 3148,0.0038167,-0.0026185,-0.0032659,0.0039839,-0.1144727,-0.0940259,-
 0.151666,-0.0018396,-0.1730894,0.0047316,0.0062235,-0.0019476,0.005534
 5,-0.1287156,-0.1211634,0.1434015,0.0005335,0.1468023,0.0415324,-0.003
 9558,0.0005589,-0.0038435,-0.1255708,0.0192605,0.0030688,-0.0045032,0.
 0065394,0.0322943,0.0005079,-0.0044858,0.0006182,-0.1203171,1.0378426,
 0.0431285,-0.0325357,0.0870039,-0.0826572,-0.0033175,-0.0323108,-0.001
 9263,0.025969,-1.8742789,-0.0297611,0.0558106,-0.3887519,-0.209078,0.0
 122708,0.0542227,0.0006909,-0.1436449,2.4652373,-0.1370656,-0.0715914,
 -0.2067104,0.9818541,0.0098417,-0.0719082,0.0075907,0.2685892,0.054181
 7,-0.0583232,0.0024322,-0.0494086,-0.0075578,0.0009113,0.0024745,0.001
 1986,0.1378445,0.0435626,0.0572049,0.0033568,0.0524078,0.0158328,-0.00
 22744,0.0033333,-0.0024284,0.1389754,0.0099401,0.0596295,0.0045247,0.0
 732057,-0.0214237,-0.0031336,0.0045876,-0.002695,0.1410725,0.0265773,-
 0.0503816,0.0034467,-0.0644021,-0.0346551,0.0012553,0.0033831,0.000801
 8,0.140482,-0.0690735,-0.0097503,0.0067373,-0.0097751,0.0746869,0.0000
 041,0.0067369,0.000003,0.1405906,-0.0564118,-0.0735242,0.0041478,-0.11
 49683,-0.1457856,0.0027001,0.0039536,0.0013568,0.0820253\Polar=187.087
 3613,-0.9545686,98.8567769,-4.2670339,0.2345352,55.2631127\Quadrupole=
 -3.1957543,5.0044878,-1.8087335,6.1961388,0.0719631,-0.1678135\PG=C01 
 [X(C9H6O1)]\NImag=0\\0.39718840,-0.39643619,0.57335737,-0.01384439,0.0
 1522240,0.02270282,-0.00253838,0.00368608,0.00006667,0.69149408,-0.002
 45547,-0.00056296,0.00008097,0.00106133,0.65423935,0.00003906,-0.00011
 727,-0.00099496,-0.01763784,0.00236213,0.14620259,0.00055697,-0.000622
 57,-0.00000774,-0.17098066,0.05423954,0.00370489,0.69597169,-0.0014422
 7,0.00115911,0.00004982,0.11722196,-0.26785944,-0.00474882,0.04155055,
 0.71992956,-0.00001143,0.00002347,0.00040743,0.00400227,-0.00271366,-0
 .06442243,-0.01789293,0.00140883,0.13694500,-0.00059111,-0.00034064,0.
 ,-0.14981826,-0.03789624,0.00260489,0.07125263,-0.01773341,-0.00212431
 ,0.70854883,0.00175498,-0.00150916,-0.00006085,-0.10101864,-0.28648425
 ,0.00221658,0.03505927,-0.05652519,-0.00143774,-0.04396400,0.70546491,
 0.00000986,0.00000666,-0.00053585,0.00230705,0.00017612,-0.06375710,-0
 .00187504,0.00026860,0.00817746,-0.01867519,0.00409635,0.13768247,-0.0
 0050379,0.00054939,0.00001438,-0.03679349,0.07696931,0.00176911,-0.348
 30684,-0.05173483,0.00900019,-0.05623145,-0.03713952,0.00145238,0.6968
 6753,-0.00071168,0.00064392,0.00002663,0.02054886,0.04651406,-0.000476
 99,0.02372492,-0.13361866,-0.00110275,-0.03653546,-0.02479458,0.001091
 48,-0.03832705,0.71871599,0.00000849,-0.00001403,-0.00013457,0.0015034
 3,-0.00229986,0.00667100,0.00935553,0.00133609,-0.06263706,0.00145535,
 0.00111132,-0.00592092,-0.01836975,0.00399513,0.13475579,-0.00055608,0
 .00044966,0.00003350,-0.02185980,-0.08629785,0.00049832,-0.06559934,0.
 03149847,0.00208032,-0.34829329,0.02301046,0.00933682,0.07602748,0.037
 19504,-0.00207774,0.68699097,0.00034639,-0.00035028,-0.00001489,-0.029
 92283,0.03189176,0.00108789,0.03105091,-0.01549947,-0.00104923,-0.0525
 3515,-0.13384657,0.00136315,-0.01899930,-0.05715383,0.00031489,0.03337
 921,0.73020999,0.00003314,-0.00001822,0.00041780,0.00076411,0.00291076
 ,0.00612107,0.00207771,-0.00106349,-0.00590231,0.00898113,-0.00107887,
 -0.06300593,-0.00234214,-0.00150116,0.00639188,-0.01768633,0.00172838,
 0.13544125,-0.00059653,0.00028217,0.00001917,0.00009648,0.00534753,-0.
 00018853,-0.01747979,-0.03423476,0.00060709,-0.03332625,0.02540974,0.0
 0140303,-0.17136445,-0.11919413,0.00296813,-0.19530343,0.13352783,0.00
 492297,0.74225203,-0.00000726,-0.00008096,0.00000007,0.00552528,-0.078
 99894,-0.00051969,-0.09145036,0.03269822,0.00308025,0.08242232,0.04891
 099,-0.00246355,-0.04091639,-0.29851562,0.00020734,0.05528004,-0.27666
 089,-0.00279741,0.00485706,0.66586500,0.00001785,-0.00000929,-0.000044
 39,-0.00018774,-0.00051455,-0.00651489,0.00033765,0.00123087,0.0062919
 1,0.00167174,-0.00062077,0.00632726,0.00333695,0.00273761,-0.06223027,
 0.00455431,-0.00532619,-0.06263910,-0.01955367,0.00233969,0.13718809,0
 .00789255,-0.00992235,-0.00025753,-0.30361167,-0.01598498,0.00784712,-
 0.04199582,0.01430859,0.00148998,-0.03620164,-0.02022521,0.00108722,0.
 00591836,0.00732097,0.00010215,0.00690594,-0.00594087,0.00005398,-0.00
 084136,-0.00005185,-0.00004553,1.42806187,-0.00014536,-0.00064158,-0.0
 0000398,-0.01393639,-0.08044451,0.00034582,0.02790410,0.00888643,-0.00
 086927,-0.03375659,0.00260199,0.00110159,0.00501274,-0.00367399,-0.000
 21736,-0.00364576,-0.00502116,0.00004957,0.00015281,-0.00297425,-0.000
 00828,0.06500329,0.11347958,-0.00021348,0.00031158,0.00130960,0.007857
 93,0.00041224,-0.05870132,0.00155490,-0.00043037,0.00199645,0.00102284
 ,0.00066424,0.00032662,0.00009063,-0.00029150,0.00798727,0.00006508,0.
 00012388,0.00945617,-0.00004451,-0.00000185,-0.00224029,-0.04314373,-0
 .00196059,0.08532959,-0.07557730,0.05769921,0.00325685,-0.02553161,0.0
 0015209,0.00112327,0.00555396,-0.01068257,-0.00019187,0.00441887,0.011
 20683,-0.00000611,-0.00315331,-0.00174133,0.00007228,-0.00300007,0.001
 34871,0.00004552,-0.00035620,0.00013104,0.00002843,-1.04778803,-0.0465
 4515,0.03251702,1.40528015,0.04433800,0.01292383,-0.00144936,-0.002730
 19,0.00647026,0.00007704,0.00059227,-0.00222265,-0.00003537,0.00006701
 ,-0.00023037,-0.00001586,-0.00103776,-0.00016443,0.00003596,0.00040033
 ,0.00058822,-0.00000177,-0.00033798,0.00071350,0.00001178,-0.04208788,
 -0.03725822,0.00135136,0.06372240,0.10903065,0.00319717,-0.00188064,0.
 01734876,0.00110848,-0.00001595,0.00913671,-0.00013994,0.00032951,0.00
 115600,-0.00005729,-0.00037587,0.00262667,0.00007636,0.00005875,-0.000
 64734,0.00004051,-0.00003231,-0.00180765,0.00002628,-0.00000333,0.0005
 0361,0.03253573,0.00149444,-0.03624013,-0.04354867,-0.00178840,0.04982
 737,-0.34134208,0.31301200,0.01042058,0.00797420,0.00089590,-0.0000669
 9,-0.00095101,0.00350449,0.00004690,-0.00000896,-0.00368745,-0.0000090
 6,0.00114854,0.00159085,-0.00004470,0.00110928,-0.00119899,-0.00006056
 ,0.00137639,-0.00004929,-0.00003835,-0.01705423,-0.00062959,0.00050361
 ,-0.24342516,-0.03468832,0.00576216,0.68627170,0.34352018,-0.53999213,
 -0.01319615,-0.00307573,0.00790566,0.00010917,-0.00077282,-0.00084555,
 0.00002125,0.00160600,0.00065337,-0.00004997,-0.00048665,-0.00000126,0
 .00001788,-0.00020245,0.00024011,0.00001043,0.00012075,0.00013413,-0.0
 0000416,0.00681569,0.00433980,-0.00019487,-0.06810540,-0.09056033,0.00
 206082,-0.19303858,0.85432021,0.01055602,-0.01221291,-0.06144065,-0.00
 008450,-0.00001927,0.00578918,0.00002745,-0.00011704,0.00000845,0.0000
 1521,0.00012082,0.00022727,-0.00005468,-0.00004922,-0.00047512,-0.0000
 5546,0.00004273,-0.00057850,-0.00003762,0.00000129,0.00019831,0.000540
 34,0.00004626,-0.00136255,0.00560976,0.00098209,-0.06033546,-0.0172699
 3,0.00922770,0.17783188,0.00019298,-0.00010951,-0.00000603,0.01031485,
 0.01727791,-0.00013966,-0.11515472,-0.11436448,0.00195183,-0.00149296,
 0.00346673,0.00028060,-0.00700711,-0.02847744,0.00022484,-0.00091507,0
 .00085691,-0.00000420,-0.00582602,0.00054856,0.00044071,0.00153676,0.0
 0040051,-0.00017326,-0.00027155,-0.00027776,0.00001362,-0.00026007,0.0
 0008261,0.00001286,0.11827678,-0.00009986,0.00006281,0.00000339,-0.014
 14609,-0.01753122,0.00035821,-0.11237731,-0.28356645,0.00247470,0.0041
 9248,-0.00244908,-0.00017855,0.00200092,0.00294938,-0.00007020,0.00074
 326,0.00044912,-0.00001639,0.00019978,0.00175856,-0.00003461,-0.001203
 91,0.00040438,0.00005912,0.00065523,0.00023772,-0.00002095,0.00017568,
 -0.00009027,-0.00000668,0.12084664,0.29818714,-0.00000607,0.00000376,0
 .00001992,-0.00028803,-0.00065745,0.00347941,0.00196131,0.00253865,-0.
 03813813,0.00028394,-0.00015508,0.00667329,0.00036852,0.00091505,0.004
 09605,-0.00000465,-0.00002013,-0.00117000,0.00043911,-0.00004582,0.007
 71464,-0.00018084,0.00000734,-0.00387420,0.00001817,0.00000931,0.00018
 923,0.00001331,-0.00000376,0.00012772,-0.00241901,-0.00262159,0.025872
 73,0.00010085,0.00003581,-0.00000783,0.01024271,-0.01360412,-0.0002798
 0,-0.00052220,-0.00319155,0.00021629,-0.14928251,0.13311585,0.00419981
 ,-0.00067450,-0.00100551,-0.00002087,-0.01031367,0.02640413,0.00059296
 ,-0.00550419,-0.00152251,0.00042069,0.00140910,-0.00043009,-0.00016912
 ,-0.00024261,0.00029229,0.00001039,-0.00013143,-0.00003156,0.00001291,
 0.00052242,-0.00069578,-0.00000950,0.15441053,0.00009718,0.00002152,-0
 .00000232,0.01774309,-0.01744884,-0.00067234,-0.00386344,-0.00340911,0
 .00007763,0.13082658,-0.24988658,-0.00522168,-0.00085254,0.00021263,0.
 00003407,-0.00391043,0.00642996,0.00013691,-0.00125386,0.00146177,0.00
 001101,0.00135221,0.00038701,-0.00002425,-0.00068728,0.00021498,0.0000
 2313,-0.00017203,-0.00008262,0.00000385,0.00087572,-0.00093861,-0.0000
 3429,-0.14040380,0.26232581,-0.00000757,-0.00000035,-0.00014776,-0.000
 13210,0.00034084,0.00357121,0.00021328,0.00005577,0.00662918,0.0041887
 8,-0.00529590,-0.03888012,-0.00002022,0.00003893,-0.00117306,0.0004503
 0,-0.00084269,0.00416767,0.00042196,0.00001969,0.00772310,-0.00016064,
 0.00003356,-0.00375505,0.00000557,-0.00000858,0.00003438,0.00001240,-0
 .00000067,0.00027370,-0.00000211,0.00001651,0.00033033,-0.00480119,0.0
 0564820,0.02648429,-0.00018224,0.00009566,0.00000537,-0.00507372,-0.00
 146818,0.00040424,-0.01162095,0.02746994,0.00061467,-0.00074211,-0.001
 05033,-0.00001774,-0.14574035,0.12944232,0.00408941,-0.00027211,-0.003
 22788,0.00023421,0.01160731,-0.01294006,-0.00032691,-0.00043251,0.0013
 4126,0.00003289,-0.00064334,-0.00015871,0.00001389,0.00038695,-0.00009
 717,-0.00001212,0.00052698,-0.00039349,-0.00015373,0.00003877,0.000083
 16,-0.00003389,0.15127604,0.00008464,-0.00004525,-0.00000280,-0.001294
 17,0.00187922,0.00001465,-0.00361070,0.00559173,0.00012705,-0.00115932
 ,0.00006269,0.00004314,0.12961655,-0.25164112,-0.00519590,-0.00366673,
 -0.00373328,0.00006581,0.01812933,-0.01707601,-0.00068247,-0.00018497,
 0.00022077,0.00000520,0.00008859,-0.00001312,-0.00000205,-0.00016589,-
 0.00001230,0.00000519,0.00036215,0.00054730,0.00001054,0.00008263,-0.0
 0001552,0.00000207,-0.13877661,0.26460920,0.00000536,-0.00000316,-0.00
 002870,0.00040500,0.00002032,0.00763320,0.00046830,-0.00087756,0.00337
 168,-0.00001827,0.00003960,-0.00113692,0.00409013,-0.00519036,-0.03826
 916,0.00023210,0.00005163,0.00743775,-0.00018042,0.00032182,0.00338801
 ,0.00002573,-0.00004412,0.00038797,0.00001502,0.00000595,-0.00019068,-
 0.00001245,0.00000296,0.00002521,-0.00015016,0.00003499,-0.00416669,-0
 .00003388,0.00000204,-0.00102070,-0.00469508,0.00560899,0.02644852,-0.
 00023757,0.00012084,0.00000845,-0.00533848,0.00041551,0.00042303,-0.00
 101971,0.00093850,0.00000085,-0.00814104,-0.02942746,0.00023752,-0.001
 26002,0.00358948,0.00029872,-0.11278315,-0.11056124,0.00188832,0.01182
 156,0.01691439,-0.00019204,-0.00031983,-0.00141536,0.00001329,-0.00058
 928,0.00000992,0.00001582,0.00038635,0.00002329,-0.00001319,0.00006316
 ,-0.00007411,-0.00003593,0.00052896,0.00038493,-0.00015019,0.00039898,
 0.00088323,-0.00000789,0.11598436,-0.00010243,0.00006353,0.00000355,0.
 00034859,0.00213421,-0.00003746,0.00103857,0.00038348,-0.00002644,0.00
 161442,0.00213208,-0.00005862,0.00400025,-0.00278500,-0.00017757,-0.11
 070504,-0.28439417,0.00241742,-0.01419957,-0.01722327,0.00036167,0.000
 10651,0.00004848,-0.00000462,-0.00016923,-0.00006751,0.00000565,0.0002
 1296,-0.00002627,-0.00000688,-0.00007422,-0.00003776,0.00000711,-0.000
 35402,0.00053822,0.00003365,-0.00069493,-0.00094956,0.00001785,0.11860
 136,0.29962969,0.00000747,-0.00000365,0.00000807,0.00042282,-0.0000396
 9,0.00767971,0.00000127,-0.00002313,-0.00113043,0.00038382,0.00094457,
 0.00348951,0.00030072,-0.00016425,0.00744905,0.00188759,0.00241290,-0.
 03827906,-0.00033865,-0.00064401,0.00342036,0.00002039,0.00004454,0.00
 029675,0.00001498,-0.00000010,-0.00010262,-0.00001237,-0.00000077,-0.0
 0002636,-0.00003593,0.00000711,-0.00103640,-0.00015367,0.00000974,-0.0
 0416995,-0.00001532,-0.00003314,0.00002647,-0.00234116,-0.00254434,0.0
 2631104,-0.00006229,0.00002150,0.00000153,0.00090216,0.00017954,-0.000
 06366,0.00090586,-0.00278209,0.00020117,0.00007412,0.00345282,0.000257
 47,-0.00888787,0.00234754,0.00042638,-0.01213796,-0.00446238,0.0005005
 8,-0.33651200,-0.01873826,0.00953560,-0.00005315,-0.00001144,-0.000033
 42,-0.00005819,-0.00000750,0.00000468,0.00009831,-0.00001135,-0.000001
 52,-0.00052202,0.00018230,0.00001511,-0.00065800,-0.00028373,0.0000168
 9,0.00055023,-0.00038993,-0.00014661,0.00054749,0.00038719,-0.00014295
 ,0.35583063,-0.00000531,0.00001609,0.00000033,0.00017411,-0.00153823,-
 0.00000770,-0.00248858,-0.00497722,0.00002141,0.00317809,-0.00418011,-
 0.00015795,-0.02864684,0.00339194,0.00092320,0.02650390,0.00675608,-0.
 00084362,-0.01870719,-0.06000368,0.00050437,-0.00001440,0.00010568,0.0
 0000608,-0.00000179,0.00004913,-0.00000013,0.00000926,-0.00003324,-0.0
 0000070,-0.00141486,0.00001449,0.00004619,0.00129710,0.00018202,-0.000
 04060,0.00039041,0.00056655,0.00000858,-0.00039522,0.00056487,0.000033
 97,0.02011811,0.05908347,0.00000143,-0.00000054,-0.00001732,-0.0000636
 8,-0.00000802,-0.00109163,0.00020255,0.00003097,0.00752983,0.00025613,
 -0.00016679,0.00752715,0.00028028,-0.00007853,0.00395213,0.00064651,0.
 00015725,0.00398076,0.00953580,0.00050531,-0.03905320,-0.00003342,0.00
 000600,-0.00108410,0.00000469,0.00000009,0.00008735,-0.00000144,-0.000
 00004,0.00005236,0.00000758,-0.00000543,-0.00008149,0.00002436,0.00001
 048,-0.00009455,-0.00014294,0.00003381,-0.00392430,-0.00014664,0.00000
 869,-0.00392709,-0.01057165,-0.00049335,0.02614849,0.01625563,0.031478
 95,0.00029702,0.00052159,0.00116820,-0.00003744,-0.00061007,-0.0003265
 3,0.00000899,-0.00016486,0.00003594,0.00001137,-0.00003872,0.00023262,
 0.00000836,0.00000029,-0.00006544,-0.00000140,-0.00004355,-0.00000268,
 0.00000033,-0.00342634,0.00070101,0.00011933,-0.01461632,-0.02809613,0
 .00094080,-0.09557876,-0.08634680,0.00075449,0.00001559,-0.00000574,-0
 .00000171,0.00007576,0.00006425,-0.00000126,-0.00007794,0.00000121,0.0
 0000313,-0.00004178,-0.00001042,0.00000101,-0.00001733,0.00000320,0.00
 000043,0.09774680,0.01126445,-0.04506585,-0.00065680,-0.00018527,-0.00
 016614,0.00000878,0.00002567,-0.00012478,-0.00000013,0.00001391,0.0000
 7985,-0.00000091,-0.00000827,-0.00007942,-0.00000096,-0.00003210,0.000
 09441,0.00000166,-0.00009950,-0.00000855,0.00000332,0.00070917,-0.0004
 6040,-0.00002563,-0.00707133,0.00028833,0.00014733,-0.08577100,-0.2359
 4932,0.00198276,0.00000053,0.00000249,0.00000017,0.00001112,0.00000736
 ,-0.00000045,-0.00001538,0.00000869,0.00000046,-0.00000806,-0.00001100
 ,0.00000025,-0.00000231,0.00000215,0.00000010,0.08116836,0.28138218,0.
 00020710,-0.00130783,0.02112979,-0.00004386,-0.00003491,-0.00080174,0.
 00001081,0.00001131,-0.00028304,0.00001123,-0.00000160,0.00017914,0.00
 000715,-0.00000883,0.00018432,-0.00000120,0.00000274,-0.00003179,-0.00
 000014,0.00000021,-0.00003314,0.00011905,-0.00002553,0.00016723,0.0010
 3511,0.00082586,0.01841380,0.00075690,0.00200015,-0.06031543,-0.000001
 69,0.00000037,-0.00003638,-0.00000153,-0.00000218,0.00002733,0.0000030
 5,-0.00000008,0.00001834,0.00000102,0.00000033,-0.00000905,0.00000041,
 -0.00000007,-0.00000439,-0.00210343,-0.00145995,0.02139501\\-0.0000015
 4,0.00000042,0.00000290,-0.00000673,-0.00000044,-0.00000133,0.00000364
 ,-0.00000107,0.00000011,0.00000223,0.00000186,0.00000052,-0.00000027,0
 .00000125,0.00000011,0.00000097,-0.00000090,-0.00000033,-0.00000082,0.
 00000235,0.00000015,0.00000254,-0.00000124,0.00000201,-0.00000803,-0.0
 0000119,0.00000007,0.00001088,-0.00000284,-0.00000654,-0.00000027,0.00
 000040,0.00000023,-0.00000135,-0.00000057,0.00000007,0.,0.00000089,-0.
 00000003,-0.00000148,0.00000101,-0.00000007,-0.00000051,0.00000124,0.0
 0000008,0.00000073,-0.00000118,0.00000206\\\@


 THERE IS NOTHING NOBLE IN BEING SUPERIOR TO SOME OTHER MAN.
 TRUE NOBILITY IS BEING SUPERIOR TO YOUR FORMER SELF.

                                                   -- HINDU PROVERB
 Job cpu time:       0 days  1 hours 42 minutes 45.3 seconds.
 Elapsed time:       0 days  0 hours  6 minutes 27.5 seconds.
 File lengths (MBytes):  RWF=    108 Int=      0 D2E=      0 Chk=      7 Scr=      1
 Normal termination of Gaussian 16 at Sun Sep 21 08:15:41 2025.
