 Entering Gaussian System, Link 0=g16
 Input=PHPO0142.gjf
 Output=PHPO0142.log
 Initial command:
 /usr/local/g16/l1.exe "/dados_01/scratch/Gau-2176504.inp" -scrdir="/dados_01/scratch/"
 Entering Link 1 = /usr/local/g16/l1.exe PID=   2176505.
  
 Copyright (c) 1988-2017, Gaussian, Inc.  All Rights Reserved.
  
 This is part of the Gaussian(R) 16 program.  It is based on
 the Gaussian(R) 09 system (copyright 2009, Gaussian, Inc.),
 the Gaussian(R) 03 system (copyright 2003, Gaussian, Inc.),
 the Gaussian(R) 98 system (copyright 1998, Gaussian, Inc.),
 the Gaussian(R) 94 system (copyright 1995, Gaussian, Inc.),
 the Gaussian 92(TM) system (copyright 1992, Gaussian, Inc.),
 the Gaussian 90(TM) system (copyright 1990, Gaussian, Inc.),
 the Gaussian 88(TM) system (copyright 1988, Gaussian, Inc.),
 the Gaussian 86(TM) system (copyright 1986, Carnegie Mellon
 University), and the Gaussian 82(TM) system (copyright 1983,
 Carnegie Mellon University). Gaussian is a federally registered
 trademark of Gaussian, Inc.
  
 This software contains proprietary and confidential information,
 including trade secrets, belonging to Gaussian, Inc.
  
 This software is provided under written license and may be
 used, copied, transmitted, or stored only in accord with that
 written license.
  
 The following legend is applicable only to US Government
 contracts under FAR:
  
                    RESTRICTED RIGHTS LEGEND
  
 Use, reproduction and disclosure by the US Government is
 subject to restrictions as set forth in subparagraphs (a)
 and (c) of the Commercial Computer Software - Restricted
 Rights clause in FAR 52.227-19.
  
 Gaussian, Inc.
 340 Quinnipiac St., Bldg. 40, Wallingford CT 06492
  
  
 ---------------------------------------------------------------
 Warning -- This program may not be used in any manner that
 competes with the business of Gaussian, Inc. or will provide
 assistance to any competitor of Gaussian, Inc.  The licensee
 of this program is prohibited from giving any competitor of
 Gaussian, Inc. access to this program.  By using this program,
 the user acknowledges that Gaussian, Inc. is engaged in the
 business of creating and licensing software in the field of
 computational chemistry and represents and warrants to the
 licensee that it is not a competitor of Gaussian, Inc. and that
 it will not use this program in any manner prohibited above.
 ---------------------------------------------------------------
  

 Cite this work as:
 Gaussian 16, Revision B.01,
 M. J. Frisch, G. W. Trucks, H. B. Schlegel, G. E. Scuseria, 
 M. A. Robb, J. R. Cheeseman, G. Scalmani, V. Barone, 
 G. A. Petersson, H. Nakatsuji, X. Li, M. Caricato, A. V. Marenich, 
 J. Bloino, B. G. Janesko, R. Gomperts, B. Mennucci, H. P. Hratchian, 
 J. V. Ortiz, A. F. Izmaylov, J. L. Sonnenberg, D. Williams-Young, 
 F. Ding, F. Lipparini, F. Egidi, J. Goings, B. Peng, A. Petrone, 
 T. Henderson, D. Ranasinghe, V. G. Zakrzewski, J. Gao, N. Rega, 
 G. Zheng, W. Liang, M. Hada, M. Ehara, K. Toyota, R. Fukuda, 
 J. Hasegawa, M. Ishida, T. Nakajima, Y. Honda, O. Kitao, H. Nakai, 
 T. Vreven, K. Throssell, J. A. Montgomery, Jr., J. E. Peralta, 
 F. Ogliaro, M. J. Bearpark, J. J. Heyd, E. N. Brothers, K. N. Kudin, 
 V. N. Staroverov, T. A. Keith, R. Kobayashi, J. Normand, 
 K. Raghavachari, A. P. Rendell, J. C. Burant, S. S. Iyengar, 
 J. Tomasi, M. Cossi, J. M. Millam, M. Klene, C. Adamo, R. Cammi, 
 J. W. Ochterski, R. L. Martin, K. Morokuma, O. Farkas, 
 J. B. Foresman, and D. J. Fox, Gaussian, Inc., Wallingford CT, 2016.
 
 ******************************************
 Gaussian 16:  ES64L-G16RevB.01 20-Dec-2017
                21-Sep-2025 
 ******************************************
 %nprocs=16
 Will use up to   16 processors via shared memory.
 %mem=40GB
 %chk=PHPO0142.chk
 ----------------------------------------------------------------------
 # opt freq=noraman M08HX/6-311++G** scf=xqc Empiricaldispersion=pfd In
 t(Grid=ultraFine)
 ----------------------------------------------------------------------
 1/18=20,19=15,26=4,38=1/1,3;
 2/9=110,12=2,17=6,18=5,40=1/2;
 3/5=4,6=6,7=1111,11=2,25=1,30=1,71=1,74=-74,75=-5,124=11/1,2,3;
 4//1;
 5/5=2,8=3,13=1,38=5/2,8;
 6/7=2,8=2,9=2,10=2,28=1/1;
 7//1,2,3,16;
 1/18=20,19=15,26=4/3(2);
 2/9=110/2;
 99//99;
 2/9=110/2;
 3/5=4,6=6,7=1111,11=2,25=1,30=1,71=1,74=-74,75=-5,124=11/1,2,3;
 4/5=5,16=3,69=1/1;
 5/5=2,8=3,13=1,38=5/2,8;
 7//1,2,3,16;
 1/18=20,19=15,26=4/3(-5);
 2/9=110/2;
 6/7=2,8=2,9=2,10=2,19=2,28=1/1;
 99/9=1/99;
 --------
 PHPO0142
 --------
 Symbolic Z-matrix:
 Charge =  0 Multiplicity = 1
 O                     4.2392   -0.7832   -0.0316 
 C                    -0.4472    0.0886    0.0034 
 C                    -1.2602    1.222    -0.0076 
 C                    -1.0224   -1.1823    0.0099 
 C                    -2.6483    1.0848   -0.0121 
 C                    -2.4106   -1.3194    0.0053 
 C                    -3.2234   -0.1858   -0.0056 
 C                     0.9748    0.2292    0.0081 
 C                     3.6263    0.4974    0.0177 
 C                     2.1717    0.3487    0.0124 
 H                    -0.827     2.2195   -0.0127 
 H                    -0.4022   -2.0755    0.0185 
 H                    -3.2813    1.9673   -0.0206 
 H                    -2.8587   -2.3087    0.0104 
 H                    -4.3042   -0.2927   -0.0092 
 H                     3.9614    1.0662   -0.8545 
 H                     3.9734    1.0168    0.916 
 H                     4.0074   -1.2529    0.788 
 

 GradGradGradGradGradGradGradGradGradGradGradGradGradGradGradGradGradGrad
 Berny optimization.
 Initialization pass.
                           ----------------------------
                           !    Initial Parameters    !
                           ! (Angstroms and Degrees)  !
 --------------------------                            --------------------------
 ! Name  Definition              Value          Derivative Info.                !
 --------------------------------------------------------------------------------
 ! R1    R(1,9)                  1.4206         estimate D2E/DX2                !
 ! R2    R(1,18)                 0.9727         estimate D2E/DX2                !
 ! R3    R(2,3)                  1.3949         estimate D2E/DX2                !
 ! R4    R(2,4)                  1.395          estimate D2E/DX2                !
 ! R5    R(2,8)                  1.4289         estimate D2E/DX2                !
 ! R6    R(3,5)                  1.3949         estimate D2E/DX2                !
 ! R7    R(3,11)                 1.0875         estimate D2E/DX2                !
 ! R8    R(4,6)                  1.395          estimate D2E/DX2                !
 ! R9    R(4,12)                 1.0874         estimate D2E/DX2                !
 ! R10   R(5,7)                  1.3947         estimate D2E/DX2                !
 ! R11   R(5,13)                 1.0861         estimate D2E/DX2                !
 ! R12   R(6,7)                  1.3949         estimate D2E/DX2                !
 ! R13   R(6,14)                 1.0861         estimate D2E/DX2                !
 ! R14   R(7,15)                 1.0861         estimate D2E/DX2                !
 ! R15   R(8,10)                 1.2029         estimate D2E/DX2                !
 ! R16   R(9,10)                 1.4622         estimate D2E/DX2                !
 ! R17   R(9,16)                 1.0939         estimate D2E/DX2                !
 ! R18   R(9,17)                 1.0942         estimate D2E/DX2                !
 ! A1    A(9,1,18)             107.6532         estimate D2E/DX2                !
 ! A2    A(3,2,4)              119.9976         estimate D2E/DX2                !
 ! A3    A(3,2,8)              120.006          estimate D2E/DX2                !
 ! A4    A(4,2,8)              119.9964         estimate D2E/DX2                !
 ! A5    A(2,3,5)              120.008          estimate D2E/DX2                !
 ! A6    A(2,3,11)             120.8741         estimate D2E/DX2                !
 ! A7    A(5,3,11)             119.1179         estimate D2E/DX2                !
 ! A8    A(2,4,6)              119.9899         estimate D2E/DX2                !
 ! A9    A(2,4,12)             120.8754         estimate D2E/DX2                !
 ! A10   A(6,4,12)             119.1347         estimate D2E/DX2                !
 ! A11   A(3,5,7)              119.9958         estimate D2E/DX2                !
 ! A12   A(3,5,13)             120.0068         estimate D2E/DX2                !
 ! A13   A(7,5,13)             119.9974         estimate D2E/DX2                !
 ! A14   A(4,6,7)              120.001          estimate D2E/DX2                !
 ! A15   A(4,6,14)             120.0067         estimate D2E/DX2                !
 ! A16   A(7,6,14)             119.9923         estimate D2E/DX2                !
 ! A17   A(5,7,6)              120.0077         estimate D2E/DX2                !
 ! A18   A(5,7,15)             119.9996         estimate D2E/DX2                !
 ! A19   A(6,7,15)             119.9927         estimate D2E/DX2                !
 ! A20   A(1,9,10)             109.7189         estimate D2E/DX2                !
 ! A21   A(1,9,16)             107.9936         estimate D2E/DX2                !
 ! A22   A(1,9,17)             108.6359         estimate D2E/DX2                !
 ! A23   A(10,9,16)            110.7777         estimate D2E/DX2                !
 ! A24   A(10,9,17)            111.5204         estimate D2E/DX2                !
 ! A25   A(16,9,17)            108.0953         estimate D2E/DX2                !
 ! A26   L(2,8,10,11,-1)       179.9453         estimate D2E/DX2                !
 ! A27   L(8,10,9,18,-1)       180.1231         estimate D2E/DX2                !
 ! A28   L(2,8,10,11,-2)       179.9792         estimate D2E/DX2                !
 ! A29   L(8,10,9,18,-2)       180.0744         estimate D2E/DX2                !
 ! D1    D(18,1,9,10)          -64.5518         estimate D2E/DX2                !
 ! D2    D(18,1,9,16)          174.6087         estimate D2E/DX2                !
 ! D3    D(18,1,9,17)           57.5969         estimate D2E/DX2                !
 ! D4    D(4,2,3,5)              0.0001         estimate D2E/DX2                !
 ! D5    D(4,2,3,11)           179.9955         estimate D2E/DX2                !
 ! D6    D(8,2,3,5)           -179.9958         estimate D2E/DX2                !
 ! D7    D(8,2,3,11)            -0.0004         estimate D2E/DX2                !
 ! D8    D(3,2,4,6)              0.0046         estimate D2E/DX2                !
 ! D9    D(3,2,4,12)          -179.9993         estimate D2E/DX2                !
 ! D10   D(8,2,4,6)           -179.9995         estimate D2E/DX2                !
 ! D11   D(8,2,4,12)            -0.0034         estimate D2E/DX2                !
 ! D12   D(3,2,9,1)           -177.4075         estimate D2E/DX2                !
 ! D13   D(3,2,9,16)           -58.2286         estimate D2E/DX2                !
 ! D14   D(3,2,9,17)            62.1453         estimate D2E/DX2                !
 ! D15   D(4,2,9,1)              2.6108         estimate D2E/DX2                !
 ! D16   D(4,2,9,16)           121.7897         estimate D2E/DX2                !
 ! D17   D(4,2,9,17)          -117.8364         estimate D2E/DX2                !
 ! D18   D(2,3,5,7)              0.0            estimate D2E/DX2                !
 ! D19   D(2,3,5,13)           179.9961         estimate D2E/DX2                !
 ! D20   D(11,3,5,7)          -179.9955         estimate D2E/DX2                !
 ! D21   D(11,3,5,13)            0.0006         estimate D2E/DX2                !
 ! D22   D(2,4,6,7)             -0.0094         estimate D2E/DX2                !
 ! D23   D(2,4,6,14)          -179.9975         estimate D2E/DX2                !
 ! D24   D(12,4,6,7)           179.9944         estimate D2E/DX2                !
 ! D25   D(12,4,6,14)            0.0064         estimate D2E/DX2                !
 ! D26   D(3,5,7,6)             -0.0048         estimate D2E/DX2                !
 ! D27   D(3,5,7,15)          -179.9941         estimate D2E/DX2                !
 ! D28   D(13,5,7,6)           179.9992         estimate D2E/DX2                !
 ! D29   D(13,5,7,15)            0.0098         estimate D2E/DX2                !
 ! D30   D(4,6,7,5)              0.0095         estimate D2E/DX2                !
 ! D31   D(4,6,7,15)           179.9988         estimate D2E/DX2                !
 ! D32   D(14,6,7,5)           179.9975         estimate D2E/DX2                !
 ! D33   D(14,6,7,15)           -0.0131         estimate D2E/DX2                !
 --------------------------------------------------------------------------------
 Trust Radius=3.00D-01 FncErr=1.00D-07 GrdErr=1.00D-06 EigMax=2.50D+02 EigMin=1.00D-04
 Number of steps in this run=     90 maximum allowed number of steps=    108.
 GradGradGradGradGradGradGradGradGradGradGradGradGradGradGradGradGradGrad

                          Input orientation:                          
 ---------------------------------------------------------------------
 Center     Atomic      Atomic             Coordinates (Angstroms)
 Number     Number       Type             X           Y           Z
 ---------------------------------------------------------------------
      1          8           0        4.239200   -0.783200   -0.031600
      2          6           0       -0.447200    0.088600    0.003400
      3          6           0       -1.260200    1.222000   -0.007600
      4          6           0       -1.022400   -1.182300    0.009900
      5          6           0       -2.648300    1.084800   -0.012100
      6          6           0       -2.410600   -1.319400    0.005300
      7          6           0       -3.223400   -0.185800   -0.005600
      8          6           0        0.974800    0.229200    0.008100
      9          6           0        3.626300    0.497400    0.017700
     10          6           0        2.171700    0.348700    0.012400
     11          1           0       -0.827000    2.219500   -0.012700
     12          1           0       -0.402200   -2.075500    0.018500
     13          1           0       -3.281300    1.967300   -0.020600
     14          1           0       -2.858700   -2.308700    0.010400
     15          1           0       -4.304200   -0.292700   -0.009200
     16          1           0        3.961400    1.066200   -0.854500
     17          1           0        3.973400    1.016800    0.916000
     18          1           0        4.007400   -1.252900    0.788000
 ---------------------------------------------------------------------
                    Distance matrix (angstroms):
                    1          2          3          4          5
     1  O    0.000000
     2  C    4.766928   0.000000
     3  C    5.853615   1.394878   0.000000
     4  C    5.276878   1.395021   2.416095   0.000000
     5  C    7.136348   2.416091   1.394871   2.789942   0.000000
     6  C    6.671485   2.416073   2.789677   1.394961   2.415985
     7  C    7.486519   2.789742   2.415794   2.416124   1.394707
     8  C    3.418017   1.428942   2.445634   2.445638   3.722810
     9  C    1.420568   4.093986   4.939997   4.942860   6.302105
    10  C    2.357475   2.631800   3.541326   3.542067   4.875945
    11  H    5.889223   2.164542   1.087518   3.407482   2.145851
    12  H    4.818210   2.164620   3.407397   1.087441   3.877293
    13  H    8.007702   3.400325   2.154179   3.876021   1.086079
    14  H    7.260103   3.400357   3.875741   2.154246   3.400091
    15  H    8.557498   3.875822   3.400037   3.400289   2.153954
    16  H    2.043188   4.596460   5.292128   5.535450   6.663191
    17  H    2.051486   4.608264   5.318431   5.533089   6.686771
    18  H    0.972673   4.717911   5.874157   5.090119   7.099531
                    6          7          8          9         10
     6  C    0.000000
     7  C    1.394924   0.000000
     8  C    3.722782   4.218684   0.000000
     9  C    6.304370   6.883727   2.665047   0.000000
    10  C    4.876482   5.421542   1.202858   1.462190   0.000000
    11  H    3.877103   3.395328   2.684811   4.774771   3.534505
    12  H    2.146050   3.395691   2.684749   4.780024   3.535781
    13  H    3.400174   2.153931   4.597413   7.062366   5.688248
    14  H    1.086064   2.154058   4.597463   7.066079   5.689174
    15  H    2.154076   1.086080   5.304764   7.969806   6.507622
    16  H    6.858041   7.342308   3.219383   1.093873   2.114083
    17  H    6.858765   7.354558   3.230511   1.094165   2.123434
    18  H    6.465892   7.352073   3.464322   1.949910   2.556653
                   11         12         13         14         15
    11  H    0.000000
    12  H    4.316069   0.000000
    13  H    2.467236   4.963364   0.000000
    14  H    4.963158   2.467558   4.296944   0.000000
    15  H    4.289765   4.290075   2.480737   2.480748   0.000000
    16  H    4.996749   5.447331   7.346024   7.658444   8.419102
    17  H    5.035158   5.432651   7.376404   7.652232   8.431456
    18  H    6.005839   4.551195   8.009286   6.990186   8.404773
                   16         17         18
    16  H    0.000000
    17  H    1.771230   0.000000
    18  H    2.842208   2.273561   0.000000
 Stoichiometry    C9H8O
 Framework group  C1[X(C9H8O)]
 Deg. of freedom    48
 Full point group                 C1      NOp   1
 Largest Abelian subgroup         C1      NOp   1
 Largest concise Abelian subgroup C1      NOp   1
                         Standard orientation:                         
 ---------------------------------------------------------------------
 Center     Atomic      Atomic             Coordinates (Angstroms)
 Number     Number       Type             X           Y           Z
 ---------------------------------------------------------------------
      1          8           0       -4.118841    0.737407   -0.080635
      2          6           0        0.572874   -0.102407   -0.002349
      3          6           0        1.393361   -1.230384    0.010079
      4          6           0        1.139653    1.172243   -0.012864
      5          6           0        2.780530   -1.084011    0.011994
      6          6           0        2.526923    1.318516   -0.011046
      7          6           0        3.347211    0.190339    0.001483
      8          6           0       -0.848173   -0.252403   -0.004220
      9          6           0       -3.497860   -0.538109   -0.006777
     10          6           0       -2.044264   -0.379806   -0.005433
     11          1           0        0.966769   -2.230706    0.018447
     12          1           0        0.513552    2.061305   -0.022599
     13          1           0        3.419359   -1.962287    0.021735
     14          1           0        2.968468    2.310739   -0.019189
     15          1           0        4.427286    0.304380    0.002877
     16          1           0       -3.823685   -1.123156   -0.871714
     17          1           0       -3.847217   -1.045228    0.897645
     18          1           0       -3.895327    1.221829    0.732673
 ---------------------------------------------------------------------
 Rotational constants (GHZ):           4.6121877           0.5538834           0.4966497
 Standard basis: 6-311++G(d,p) (5D, 7F)
 There are   286 symmetry adapted cartesian basis functions of A   symmetry.
 There are   276 symmetry adapted basis functions of A   symmetry.
   276 basis functions,   432 primitive gaussians,   286 cartesian basis functions
    35 alpha electrons       35 beta electrons
       nuclear repulsion energy       433.8148075827 Hartrees.
 NAtoms=   18 NActive=   18 NUniq=   18 SFac= 1.00D+00 NAtFMM=   60 NAOKFM=F Big=F
 Integral buffers will be    131072 words long.
 Raffenetti 2 integral format.
 Two-electron integral symmetry is turned on.
 R6APFD:  NTU= -4 IXU= 1 FactS= 1.050
 Nuclear repulsion after empirical dispersion term =      433.8076463253 Hartrees.
 One-electron integrals computed using PRISM.
 NBasis=   276 RedAO= T EigKep=  1.26D-06  NBF=   276
 NBsUse=   274 1.00D-06 EigRej=  1.78D-07 NBFU=   274
 ExpMin= 3.60D-02 ExpMax= 8.59D+03 ExpMxC= 1.30D+03 IAcc=3 IRadAn=         5 AccDes= 0.00D+00
 Harris functional with IExCor= 1009 and IRadAn=       5 diagonalized for initial guess.
 HarFok:  IExCor= 1009 AccDes= 0.00D+00 IRadAn=         5 IDoV= 1 UseB2=F ITyADJ=14
 ICtDFT=  3500011 ScaDFX=  1.000000  1.000000  1.000000  1.000000
 FoFCou: FMM=F IPFlag=           0 FMFlag=      100000 FMFlg1=           0
         NFxFlg=           0 DoJE=T BraDBF=F KetDBF=T FulRan=T
         wScrn=  0.000000 ICntrl=       500 IOpCl=  0 I1Cent=   200000004 NGrid=           0
         NMat0=    1 NMatS0=      1 NMatT0=    0 NMatD0=    1 NMtDS0=    0 NMtDT0=    0
 Petite list used in FoFCou.
 Requested convergence on RMS density matrix=1.00D-08 within  32 cycles.
 Requested convergence on MAX density matrix=1.00D-06.
 Requested convergence on             energy=1.00D-06.
 No special actions if energy rises.
 SCF Done:  E(RM08HX) =  -422.915664828     A.U. after   14 cycles
            NFock= 14  Conv=0.74D-08     -V/T= 2.0046
 QCSCF skips out because SCF is already converged.

 **********************************************************************

            Population analysis using the SCF Density.

 **********************************************************************

 Orbital symmetries:
       Occupied  (A) (A) (A) (A) (A) (A) (A) (A) (A) (A) (A) (A)
                 (A) (A) (A) (A) (A) (A) (A) (A) (A) (A) (A) (A)
                 (A) (A) (A) (A) (A) (A) (A) (A) (A) (A) (A)
       Virtual   (A) (A) (A) (A) (A) (A) (A) (A) (A) (A) (A) (A)
                 (A) (A) (A) (A) (A) (A) (A) (A) (A) (A) (A) (A)
                 (A) (A) (A) (A) (A) (A) (A) (A) (A) (A) (A) (A)
                 (A) (A) (A) (A) (A) (A) (A) (A) (A) (A) (A) (A)
                 (A) (A) (A) (A) (A) (A) (A) (A) (A) (A) (A) (A)
                 (A) (A) (A) (A) (A) (A) (A) (A) (A) (A) (A) (A)
                 (A) (A) (A) (A) (A) (A) (A) (A) (A) (A) (A) (A)
                 (A) (A) (A) (A) (A) (A) (A) (A) (A) (A) (A) (A)
                 (A) (A) (A) (A) (A) (A) (A) (A) (A) (A) (A) (A)
                 (A) (A) (A) (A) (A) (A) (A) (A) (A) (A) (A) (A)
                 (A) (A) (A) (A) (A) (A) (A) (A) (A) (A) (A) (A)
                 (A) (A) (A) (A) (A) (A) (A) (A) (A) (A) (A) (A)
                 (A) (A) (A) (A) (A) (A) (A) (A) (A) (A) (A) (A)
                 (A) (A) (A) (A) (A) (A) (A) (A) (A) (A) (A) (A)
                 (A) (A) (A) (A) (A) (A) (A) (A) (A) (A) (A) (A)
                 (A) (A) (A) (A) (A) (A) (A) (A) (A) (A) (A) (A)
                 (A) (A) (A) (A) (A) (A) (A) (A) (A) (A) (A) (A)
                 (A) (A) (A) (A) (A) (A) (A) (A) (A) (A) (A) (A)
                 (A) (A) (A) (A) (A) (A) (A) (A) (A) (A) (A) (A)
                 (A) (A) (A) (A) (A) (A) (A) (A) (A) (A) (A)
 The electronic state is 1-A.
 Alpha  occ. eigenvalues --  -19.61857 -10.60638 -10.56864 -10.54847 -10.54828
 Alpha  occ. eigenvalues --  -10.54635 -10.54598 -10.54518 -10.53777 -10.53442
 Alpha  occ. eigenvalues --   -1.15411  -0.98725  -0.90316  -0.86164  -0.86069
 Alpha  occ. eigenvalues --   -0.79450  -0.71477  -0.70634  -0.63345  -0.61032
 Alpha  occ. eigenvalues --   -0.57431  -0.55643  -0.54168  -0.53284  -0.51435
 Alpha  occ. eigenvalues --   -0.50134  -0.46480  -0.44027  -0.42750  -0.42274
 Alpha  occ. eigenvalues --   -0.38406  -0.37165  -0.34176  -0.32212  -0.29236
 Alpha virt. eigenvalues --   -0.03172  -0.02193  -0.01816  -0.01454  -0.00243
 Alpha virt. eigenvalues --   -0.00135  -0.00027   0.00941   0.02283   0.02340
 Alpha virt. eigenvalues --    0.03267   0.04126   0.05170   0.05551   0.06348
 Alpha virt. eigenvalues --    0.06426   0.07163   0.07693   0.08417   0.08798
 Alpha virt. eigenvalues --    0.09392   0.10726   0.11053   0.11195   0.11660
 Alpha virt. eigenvalues --    0.12083   0.12320   0.12607   0.12967   0.13151
 Alpha virt. eigenvalues --    0.13627   0.13801   0.14121   0.14844   0.15374
 Alpha virt. eigenvalues --    0.16392   0.17468   0.18763   0.19150   0.19417
 Alpha virt. eigenvalues --    0.19902   0.20802   0.21333   0.22356   0.22581
 Alpha virt. eigenvalues --    0.23390   0.24061   0.25032   0.25756   0.25969
 Alpha virt. eigenvalues --    0.26791   0.28981   0.29257   0.29956   0.30283
 Alpha virt. eigenvalues --    0.31742   0.32447   0.32518   0.33386   0.33988
 Alpha virt. eigenvalues --    0.35482   0.37351   0.37895   0.38249   0.43212
 Alpha virt. eigenvalues --    0.43801   0.49774   0.51493   0.52294   0.52924
 Alpha virt. eigenvalues --    0.54274   0.56493   0.56568   0.56738   0.57428
 Alpha virt. eigenvalues --    0.57944   0.60295   0.60424   0.62962   0.63956
 Alpha virt. eigenvalues --    0.64869   0.64974   0.65410   0.67415   0.67766
 Alpha virt. eigenvalues --    0.68114   0.69184   0.71995   0.73015   0.73927
 Alpha virt. eigenvalues --    0.75044   0.76098   0.78712   0.78767   0.79427
 Alpha virt. eigenvalues --    0.81677   0.82585   0.84279   0.86393   0.87465
 Alpha virt. eigenvalues --    0.89615   0.90192   0.90669   0.92796   0.94435
 Alpha virt. eigenvalues --    0.96426   0.96656   1.00089   1.01573   1.04468
 Alpha virt. eigenvalues --    1.04877   1.06595   1.08117   1.08862   1.11357
 Alpha virt. eigenvalues --    1.15340   1.16048   1.16962   1.20608   1.22030
 Alpha virt. eigenvalues --    1.23469   1.28046   1.28819   1.31879   1.33466
 Alpha virt. eigenvalues --    1.34256   1.45539   1.48653   1.51643   1.52622
 Alpha virt. eigenvalues --    1.53281   1.53777   1.55152   1.56599   1.58815
 Alpha virt. eigenvalues --    1.59310   1.60810   1.61537   1.64726   1.65934
 Alpha virt. eigenvalues --    1.67407   1.67487   1.68589   1.71144   1.75064
 Alpha virt. eigenvalues --    1.76437   1.79391   1.80302   1.83700   1.83782
 Alpha virt. eigenvalues --    1.86001   1.87765   1.92250   1.93869   1.95700
 Alpha virt. eigenvalues --    1.97328   1.97627   1.99302   1.99408   1.99870
 Alpha virt. eigenvalues --    2.05594   2.07841   2.10502   2.11496   2.14175
 Alpha virt. eigenvalues --    2.16807   2.18469   2.31502   2.34970   2.39679
 Alpha virt. eigenvalues --    2.42088   2.43788   2.45274   2.45984   2.47651
 Alpha virt. eigenvalues --    2.49535   2.52503   2.54227   2.63016   2.64504
 Alpha virt. eigenvalues --    2.66848   2.69437   2.69561   2.70720   2.71834
 Alpha virt. eigenvalues --    2.73307   2.74609   2.76569   2.77068   2.82142
 Alpha virt. eigenvalues --    2.86033   2.87343   2.87887   2.91417   2.93379
 Alpha virt. eigenvalues --    2.95604   2.97564   2.98558   3.04455   3.05546
 Alpha virt. eigenvalues --    3.11612   3.16003   3.16941   3.18098   3.21000
 Alpha virt. eigenvalues --    3.26474   3.27875   3.29490   3.38529   3.42699
 Alpha virt. eigenvalues --    3.44626   3.53820   3.56282   3.58989   3.62774
 Alpha virt. eigenvalues --    3.73856   3.79892   3.89153   3.94400   4.02171
 Alpha virt. eigenvalues --    4.06204   4.08735   4.20392   4.22836   4.44779
 Alpha virt. eigenvalues --    4.90918   5.20870   5.48526   5.71024  23.54111
 Alpha virt. eigenvalues --   23.77472  23.90982  24.01035  24.01973  24.12690
 Alpha virt. eigenvalues --   24.14205  24.23803  25.17397  49.91741
          Condensed to atoms (all electrons):
               1          2          3          4          5          6
     1  O    7.981540   0.016314   0.015350  -0.021622   0.003377  -0.004104
     2  C    0.016314  12.191169  -4.220864  -4.629091   2.445901   2.594764
     3  C    0.015350  -4.220864  24.164459  -2.454143  -9.240437  -1.973092
     4  C   -0.021622  -4.629091  -2.454143  24.842117  -2.215127  -9.751232
     5  C    0.003377   2.445901  -9.240437  -2.215127  13.862213   3.456859
     6  C   -0.004104   2.594764  -1.973092  -9.751232   3.456859  14.201350
     7  C   -0.000434  -2.752068   4.548589   4.492224  -4.875702  -4.807773
     8  C    0.036933   0.395053  -3.102070  -2.641662   2.104602   1.906385
     9  C    0.086118  -0.941273  -0.000387   0.148512  -0.118355  -0.177627
    10  C   -0.034734   0.086189  -0.869154  -0.918810   0.293279   0.282369
    11  H   -0.000738  -0.110367   0.697342   0.106212  -0.297772  -0.059749
    12  H   -0.000621  -0.138967   0.086116   0.774421  -0.060727  -0.338215
    13  H    0.000030   0.068006  -0.168369  -0.029916   0.442563   0.057163
    14  H    0.000011   0.068691  -0.038210  -0.168177   0.068771   0.447843
    15  H   -0.000004  -0.030533   0.074808   0.081211  -0.100327  -0.102349
    16  H   -0.096756  -0.016000   0.005702  -0.004104  -0.003227  -0.000243
    17  H   -0.037783   0.015037  -0.010706   0.010049   0.003785  -0.000403
    18  H    0.250475  -0.002417  -0.000639  -0.003516   0.000345   0.004218
               7          8          9         10         11         12
     1  O   -0.000434   0.036933   0.086118  -0.034734  -0.000738  -0.000621
     2  C   -2.752068   0.395053  -0.941273   0.086189  -0.110367  -0.138967
     3  C    4.548589  -3.102070  -0.000387  -0.869154   0.697342   0.086116
     4  C    4.492224  -2.641662   0.148512  -0.918810   0.106212   0.774421
     5  C   -4.875702   2.104602  -0.118355   0.293279  -0.297772  -0.060727
     6  C   -4.807773   1.906385  -0.177627   0.282369  -0.059749  -0.338215
     7  C   11.930536  -1.981219   0.036566  -0.186038   0.116487   0.123823
     8  C   -1.981219   8.079829  -0.299866   0.544459  -0.089204  -0.066405
     9  C    0.036566  -0.299866  10.504439  -3.172462   0.015562   0.016154
    10  C   -0.186038   0.544459  -3.172462   9.692817  -0.027346  -0.039815
    11  H    0.116487  -0.089204   0.015562  -0.027346   0.424465   0.002601
    12  H    0.123823  -0.066405   0.016154  -0.039815   0.002601   0.428674
    13  H   -0.110488   0.040380  -0.002313   0.008208  -0.008135  -0.000901
    14  H   -0.121782   0.041886  -0.002709   0.007161  -0.001003  -0.009169
    15  H    0.443370  -0.034404  -0.000149  -0.004603   0.002576   0.002832
    16  H    0.000556  -0.024333   0.523892  -0.112453   0.000404  -0.000424
    17  H    0.000084   0.044687   0.166798   0.074138  -0.000890   0.000423
    18  H   -0.000763  -0.018197  -0.038249   0.053167  -0.000170  -0.002637
              13         14         15         16         17         18
     1  O    0.000030   0.000011  -0.000004  -0.096756  -0.037783   0.250475
     2  C    0.068006   0.068691  -0.030533  -0.016000   0.015037  -0.002417
     3  C   -0.168369  -0.038210   0.074808   0.005702  -0.010706  -0.000639
     4  C   -0.029916  -0.168177   0.081211  -0.004104   0.010049  -0.003516
     5  C    0.442563   0.068771  -0.100327  -0.003227   0.003785   0.000345
     6  C    0.057163   0.447843  -0.102349  -0.000243  -0.000403   0.004218
     7  C   -0.110488  -0.121782   0.443370   0.000556   0.000084  -0.000763
     8  C    0.040380   0.041886  -0.034404  -0.024333   0.044687  -0.018197
     9  C   -0.002313  -0.002709  -0.000149   0.523892   0.166798  -0.038249
    10  C    0.008208   0.007161  -0.004603  -0.112453   0.074138   0.053167
    11  H   -0.008135  -0.001003   0.002576   0.000404  -0.000890  -0.000170
    12  H   -0.000901  -0.009169   0.002832  -0.000424   0.000423  -0.002637
    13  H    0.401080   0.001267  -0.002081  -0.000042   0.000029   0.000013
    14  H    0.001267   0.400918  -0.002685  -0.000025  -0.000042   0.000115
    15  H   -0.002081  -0.002685   0.396875   0.000005   0.000002  -0.000014
    16  H   -0.000042  -0.000025   0.000005   0.553921  -0.097442   0.024942
    17  H    0.000029  -0.000042   0.000002  -0.097442   0.634064  -0.033659
    18  H    0.000013   0.000115  -0.000014   0.024942  -0.033659   0.498545
 Mulliken charges:
               1
     1  O   -0.193353
     2  C    0.960454
     3  C   -1.514295
     4  C   -1.617347
     5  C    0.229979
     6  C    0.263835
     7  C   -0.855968
     8  C    1.063147
     9  C   -0.744652
    10  C    0.323630
    11  H    0.229724
    12  H    0.222837
    13  H    0.303505
    14  H    0.307139
    15  H    0.275468
    16  H    0.245627
    17  H    0.231830
    18  H    0.268440
 Sum of Mulliken charges =  -0.00000
 Mulliken charges with hydrogens summed into heavy atoms:
               1
     1  O    0.075087
     2  C    0.960454
     3  C   -1.284571
     4  C   -1.394511
     5  C    0.533484
     6  C    0.570974
     7  C   -0.580500
     8  C    1.063147
     9  C   -0.267194
    10  C    0.323630
 Electronic spatial extent (au):  <R**2>=           2143.8645
 Charge=             -0.0000 electrons
 Dipole moment (field-independent basis, Debye):
    X=              1.2898    Y=             -0.5826    Z=              1.3438  Tot=              1.9516
 Quadrupole moment (field-independent basis, Debye-Ang):
   XX=            -56.3560   YY=            -52.8643   ZZ=            -62.0246
   XY=              3.7522   XZ=             -5.5610   YZ=              2.2851
 Traceless Quadrupole moment (field-independent basis, Debye-Ang):
   XX=              0.7256   YY=              4.2174   ZZ=             -4.9430
   XY=              3.7522   XZ=             -5.5610   YZ=              2.2851
 Octapole moment (field-independent basis, Debye-Ang**2):
  XXX=             37.3687  YYY=              6.3278  ZZZ=              1.0461  XYY=             -1.0310
  XXY=            -17.5543  XXZ=             22.0442  XZZ=            -20.1354  YZZ=              1.2791
  YYZ=              2.5412  XYZ=             -9.4414
 Hexadecapole moment (field-independent basis, Debye-Ang**3):
 XXXX=          -2506.1458 YYYY=           -339.2148 ZZZZ=            -80.0927 XXXY=             74.9728
 XXXZ=            -87.7273 YYYX=            -18.3684 YYYZ=              4.5131 ZZZX=             -4.7153
 ZZZY=              2.7116 XXYY=           -421.4586 XXZZ=           -421.3718 YYZZ=            -80.5268
 XXYZ=             35.8227 YYXZ=            -10.3829 ZZXY=             -5.1573
 N-N= 4.338076463253D+02 E-N=-1.851155538358D+03  KE= 4.209850132321D+02
 R6APFD:  NTU= -4 IXU= 1 FactS= 1.050
 Calling FoFJK, ICntrl=      2127 FMM=F ISym2X=0 I1Cent= 0 IOpClX= 0 NMat=1 NMatS=1 NMatT=0.
 ***** Axes restored to original set *****
 -------------------------------------------------------------------
 Center     Atomic                   Forces (Hartrees/Bohr)
 Number     Number              X              Y              Z
 -------------------------------------------------------------------
      1        8           0.002964524   -0.005045850    0.008330613
      2        6           0.005379355   -0.000148965    0.000063792
      3        6          -0.011095655    0.004568943    0.000037655
      4        6          -0.010276699   -0.006455761    0.000102402
      5        6           0.003926916   -0.003962301    0.000007878
      6        6           0.003178931    0.004669425    0.000011864
      7        6           0.001544990    0.000083279    0.000009804
      8        6           0.001440793    0.000230324   -0.000086913
      9        6           0.000794482   -0.013629221    0.002325865
     10        6          -0.002316839    0.007902471    0.001306481
     11        1           0.003194806   -0.001124429   -0.000007975
     12        1           0.002947280    0.001699580   -0.000140034
     13        1          -0.000536523    0.001549698   -0.000029678
     14        1          -0.000228625   -0.001633663   -0.000009301
     15        1          -0.001802939   -0.000185089   -0.000010485
     16        1           0.000964702   -0.001241123   -0.001519533
     17        1          -0.002511818    0.006940676    0.002363145
     18        1           0.002432318    0.005782006   -0.012755580
 -------------------------------------------------------------------
 Cartesian Forces:  Max     0.013629221 RMS     0.004412612

 GradGradGradGradGradGradGradGradGradGradGradGradGradGradGradGradGradGrad
 Berny optimization.
 FormGI is forming the generalized inverse of G from B-inverse, IUseBI=4.
 Internal  Forces:  Max     0.014119650 RMS     0.002933819
 Search for a local minimum.
 Step number   1 out of a maximum of   90
 All quantities printed in internal units (Hartrees-Bohrs-Radians)
 Mixed Optimization -- RFO/linear search
 Second derivative matrix not updated -- first step.
 ITU=  0
     Eigenvalues ---    0.00230   0.00938   0.01108   0.01420   0.01514
     Eigenvalues ---    0.02155   0.02155   0.02156   0.02156   0.02157
     Eigenvalues ---    0.02157   0.02157   0.02158   0.03861   0.04399
     Eigenvalues ---    0.06502   0.07972   0.11696   0.14010   0.16000
     Eigenvalues ---    0.16000   0.16000   0.16000   0.16000   0.16000
     Eigenvalues ---    0.22000   0.22000   0.22075   0.23486   0.25000
     Eigenvalues ---    0.34336   0.34369   0.35101   0.35110   0.35270
     Eigenvalues ---    0.35270   0.35272   0.36691   0.41142   0.42130
     Eigenvalues ---    0.42325   0.42375   0.46463   0.46474   0.46476
     Eigenvalues ---    0.46496   0.52834   1.03400
 RFO step:  Lambda=-3.40849586D-03 EMin= 2.30000000D-03
 Linear search not attempted -- first point.
 Iteration  1 RMS(Cart)=  0.08446842 RMS(Int)=  0.00320974
 Iteration  2 RMS(Cart)=  0.00680115 RMS(Int)=  0.00053299
 Iteration  3 RMS(Cart)=  0.00001903 RMS(Int)=  0.00053287
 Iteration  4 RMS(Cart)=  0.00000004 RMS(Int)=  0.00053287
 Variable       Old X    -DE/DX   Delta X   Delta X   Delta X     New X
                                 (Linear)    (Quad)   (Total)
    R1        2.68448   0.00182   0.00000   0.00426   0.00424   2.68872
    R2        1.83809  -0.01412   0.00000  -0.02655  -0.02652   1.81156
    R3        2.63594   0.00420   0.00000   0.00941   0.00941   2.64535
    R4        2.63621   0.00413   0.00000   0.00927   0.00927   2.64548
    R5        2.70031   0.00384   0.00000   0.00926   0.00925   2.70956
    R6        2.63592  -0.00298   0.00000  -0.00634  -0.00634   2.62958
    R7        2.05511   0.00024   0.00000   0.00068   0.00068   2.05579
    R8        2.63609  -0.00313   0.00000  -0.00670  -0.00670   2.62940
    R9        2.05497   0.00028   0.00000   0.00080   0.00080   2.05576
   R10        2.63561  -0.00057   0.00000  -0.00164  -0.00165   2.63397
   R11        2.05239   0.00157   0.00000   0.00442   0.00442   2.05681
   R12        2.63602  -0.00066   0.00000  -0.00185  -0.00186   2.63417
   R13        2.05236   0.00158   0.00000   0.00444   0.00444   2.05680
   R14        2.05239   0.00181   0.00000   0.00509   0.00509   2.05748
   R15        2.27307   0.00239   0.00000   0.00230   0.00230   2.27537
   R16        2.76314   0.00388   0.00000   0.01049   0.01050   2.77364
   R17        2.06712   0.00086   0.00000   0.00248   0.00248   2.06960
   R18        2.06767   0.00444   0.00000   0.01279   0.01279   2.08047
    A1        1.87890   0.00109   0.00000   0.00664   0.00658   1.88548
    A2        2.09435  -0.00250   0.00000  -0.00838  -0.00838   2.08597
    A3        2.09450   0.00116   0.00000   0.00382   0.00382   2.09832
    A4        2.09433   0.00134   0.00000   0.00456   0.00456   2.09889
    A5        2.09453   0.00021   0.00000   0.00175   0.00176   2.09629
    A6        2.10965  -0.00358   0.00000  -0.02212  -0.02213   2.08752
    A7        2.07900   0.00337   0.00000   0.02037   0.02037   2.09937
    A8        2.09422   0.00033   0.00000   0.00216   0.00217   2.09639
    A9        2.10967  -0.00365   0.00000  -0.02239  -0.02240   2.08727
   A10        2.07929   0.00332   0.00000   0.02023   0.02023   2.09952
   A11        2.09432   0.00107   0.00000   0.00369   0.00369   2.09801
   A12        2.09451  -0.00101   0.00000  -0.00479  -0.00479   2.08972
   A13        2.09435  -0.00005   0.00000   0.00110   0.00110   2.09545
   A14        2.09441   0.00105   0.00000   0.00352   0.00352   2.09793
   A15        2.09451  -0.00100   0.00000  -0.00468  -0.00468   2.08984
   A16        2.09426  -0.00005   0.00000   0.00116   0.00116   2.09542
   A17        2.09453  -0.00015   0.00000  -0.00275  -0.00275   2.09178
   A18        2.09439   0.00008   0.00000   0.00141   0.00141   2.09580
   A19        2.09427   0.00007   0.00000   0.00134   0.00135   2.09561
   A20        1.91496   0.01169   0.00000   0.05755   0.05724   1.97219
   A21        1.88484  -0.00615   0.00000  -0.04015  -0.03837   1.84647
   A22        1.89605   0.00347   0.00000   0.05296   0.05158   1.94763
   A23        1.93344  -0.00186   0.00000  -0.01780  -0.01763   1.91581
   A24        1.94640  -0.00724   0.00000  -0.03481  -0.03688   1.90952
   A25        1.88662  -0.00000   0.00000  -0.01782  -0.01824   1.86838
   A26        3.14064   0.00226   0.00000   0.02594   0.02569   3.16633
   A27        3.14374  -0.00436   0.00000  -0.13889  -0.13893   3.00481
   A28        3.14123  -0.00041   0.00000  -0.00263  -0.00400   3.13723
   A29        3.14289  -0.00020   0.00000  -0.03682  -0.03560   3.10729
    D1       -1.12664   0.00100   0.00000   0.03774   0.03692  -1.08972
    D2        3.04750   0.00009   0.00000   0.04985   0.04939   3.09688
    D3        1.00526   0.00158   0.00000   0.06439   0.06561   1.07086
    D4        0.00000   0.00016   0.00000   0.00059   0.00022   0.00022
    D5        3.14151   0.00017   0.00000   0.00167   0.00133  -3.14034
    D6       -3.14152  -0.00021   0.00000  -0.00173  -0.00129   3.14038
    D7       -0.00001  -0.00020   0.00000  -0.00065  -0.00018  -0.00018
    D8        0.00008  -0.00017   0.00000  -0.00109  -0.00072  -0.00064
    D9       -3.14158  -0.00022   0.00000  -0.00362  -0.00327   3.13834
   D10       -3.14158   0.00020   0.00000   0.00123   0.00079  -3.14080
   D11       -0.00006   0.00015   0.00000  -0.00130  -0.00176  -0.00182
   D12       -3.09634   0.00215   0.00000   0.01204   0.01357  -3.08277
   D13       -1.01628   0.00038   0.00000  -0.03152  -0.03190  -1.04818
   D14        1.08464  -0.00347   0.00000  -0.02403  -0.02342   1.06122
   D15        0.04557   0.00267   0.00000   0.02315   0.02348   0.06904
   D16        2.12563   0.00090   0.00000  -0.02041  -0.02199   2.10364
   D17       -2.05663  -0.00294   0.00000  -0.01292  -0.01352  -2.07015
   D18        0.00000  -0.00005   0.00000   0.00036   0.00051   0.00051
   D19        3.14152  -0.00002   0.00000   0.00062   0.00072  -3.14094
   D20       -3.14151  -0.00006   0.00000  -0.00070  -0.00061   3.14106
   D21        0.00001  -0.00003   0.00000  -0.00044  -0.00040  -0.00039
   D22       -0.00016   0.00007   0.00000   0.00065   0.00049   0.00033
   D23       -3.14155   0.00002   0.00000  -0.00070  -0.00081   3.14083
   D24        3.14150   0.00012   0.00000   0.00313   0.00306  -3.13863
   D25        0.00011   0.00006   0.00000   0.00178   0.00175   0.00187
   D26       -0.00008  -0.00005   0.00000  -0.00081  -0.00074  -0.00082
   D27       -3.14149   0.00002   0.00000   0.00021   0.00019  -3.14130
   D28        3.14158  -0.00008   0.00000  -0.00107  -0.00095   3.14063
   D29        0.00017  -0.00001   0.00000  -0.00005  -0.00002   0.00015
   D30        0.00017   0.00004   0.00000   0.00030   0.00023   0.00040
   D31        3.14157  -0.00003   0.00000  -0.00071  -0.00069   3.14088
   D32        3.14155   0.00009   0.00000   0.00165   0.00154  -3.14009
   D33       -0.00023   0.00003   0.00000   0.00063   0.00061   0.00039
         Item               Value     Threshold  Converged?
 Maximum Force            0.014120     0.000450     NO 
 RMS     Force            0.002934     0.000300     NO 
 Maximum Displacement     0.278500     0.001800     NO 
 RMS     Displacement     0.085833     0.001200     NO 
 Predicted change in Energy=-1.794076D-03
 GradGradGradGradGradGradGradGradGradGradGradGradGradGradGradGradGradGrad

                          Input orientation:                          
 ---------------------------------------------------------------------
 Center     Atomic      Atomic             Coordinates (Angstroms)
 Number     Number       Type             X           Y           Z
 ---------------------------------------------------------------------
      1          8           0        4.164197   -0.871436   -0.032393
      2          6           0       -0.443603    0.158241   -0.000776
      3          6           0       -1.306241    1.260632   -0.014882
      4          6           0       -0.978006   -1.135584    0.014358
      5          6           0       -2.684440    1.068591   -0.013558
      6          6           0       -2.356965   -1.321352    0.016108
      7          6           0       -3.212769   -0.221134    0.002414
      8          6           0        0.976913    0.353223   -0.003607
      9          6           0        3.640283    0.449677    0.035165
     10          6           0        2.173479    0.487456   -0.001464
     11          1           0       -0.892521    2.266688   -0.027838
     12          1           0       -0.308750   -1.993187    0.022252
     13          1           0       -3.349510    1.930099   -0.025190
     14          1           0       -2.765855   -2.329981    0.027186
     15          1           0       -4.291454   -0.369005    0.003141
     16          1           0        4.046216    0.976219   -0.835127
     17          1           0        3.997700    0.981959    0.930145
     18          1           0        3.860024   -1.351105    0.739865
 ---------------------------------------------------------------------
                    Distance matrix (angstroms):
                    1          2          3          4          5
     1  O    0.000000
     2  C    4.721552   0.000000
     3  C    5.871261   1.399860   0.000000
     4  C    5.149195   1.399928   2.418769   0.000000
     5  C    7.118138   2.418729   1.391515   2.787667   0.000000
     6  C    6.536844   2.418767   2.787763   1.391417   2.412457
     7  C    7.405656   2.795035   2.414701   2.414649   1.393836
     8  C    3.414586   1.433838   2.456890   2.457352   3.730597
     9  C    1.422811   4.094429   5.012809   4.882836   6.355120
    10  C    2.410499   2.637707   3.564608   3.544907   4.892570
    11  H    5.951322   2.155878   1.087879   3.403608   2.155601
    12  H    4.611786   2.155773   3.403484   1.087864   3.875522
    13  H    8.019005   3.403583   2.150173   3.876082   1.088416
    14  H    7.082126   3.403657   3.876176   2.150151   3.399791
    15  H    8.470639   3.883807   3.401108   3.400986   2.156260
    16  H    2.017952   4.639365   5.422406   5.515808   6.781242
    17  H    2.095059   4.611974   5.394676   5.484552   6.749006
    18  H    0.958637   4.620377   5.837902   4.896871   7.018019
                    6          7          8          9         10
     6  C    0.000000
     7  C    1.393940   0.000000
     8  C    3.730863   4.228872   0.000000
     9  C    6.253311   6.885883   2.665398   0.000000
    10  C    4.878219   5.432659   1.204073   1.467748   0.000000
    11  H    3.875637   3.402018   2.675204   4.883831   3.544956
    12  H    2.155593   3.402043   2.675676   4.643557   3.509361
    13  H    3.399822   2.155751   4.604883   7.145103   5.708344
    14  H    1.088414   2.155825   4.605306   6.983206   5.686456
    15  H    2.156242   1.088773   5.317645   7.973940   6.521419
    16  H    6.855958   7.404593   3.240396   1.095187   2.107375
    17  H    6.820739   7.368785   3.223718   1.100936   2.107181
    18  H    6.259047   7.200353   3.430716   1.946203   2.602750
                   11         12         13         14         15
    11  H    0.000000
    12  H    4.299981   0.000000
    13  H    2.479939   4.963935   0.000000
    14  H    4.964048   2.480084   4.300195   0.000000
    15  H    4.301231   4.301193   2.484741   2.484644   0.000000
    16  H    5.167992   5.340244   7.500844   7.620948   8.486994
    17  H    5.146117   5.312371   7.469481   7.584850   8.449528
    18  H    6.021999   4.278542   7.957952   6.735606   8.243414
                   16         17         18
    16  H    0.000000
    17  H    1.765947   0.000000
    18  H    2.816327   2.344855   0.000000
 Stoichiometry    C9H8O
 Framework group  C1[X(C9H8O)]
 Deg. of freedom    48
 Full point group                 C1      NOp   1
 Largest Abelian subgroup         C1      NOp   1
 Largest concise Abelian subgroup C1      NOp   1
                         Standard orientation:                         
 ---------------------------------------------------------------------
 Center     Atomic      Atomic             Coordinates (Angstroms)
 Number     Number       Type             X           Y           Z
 ---------------------------------------------------------------------
      1          8           0       -4.054534    0.810783   -0.081439
      2          6           0        0.566706   -0.154351   -0.005825
      3          6           0        1.444449   -1.244787    0.005328
      4          6           0        1.083218    1.146793   -0.012029
      5          6           0        2.819855   -1.033728    0.010458
      6          6           0        2.459467    1.351600   -0.006351
      7          6           0        3.330346    0.263249    0.005135
      8          6           0       -0.850964   -0.368964   -0.012634
      9          6           0       -3.512936   -0.501476    0.013635
     10          6           0       -2.045569   -0.519657   -0.014405
     11          1           0        1.044647   -2.256531    0.008974
     12          1           0        0.402228    1.995064   -0.023775
     13          1           0        3.496735   -1.886029    0.018517
     14          1           0        2.854415    2.365814   -0.011950
     15          1           0        4.406880    0.426001    0.008888
     16          1           0       -3.906705   -1.049701   -0.848821
     17          1           0       -3.868048   -1.021878    0.916484
     18          1           0       -3.761319    1.308915    0.683332
 ---------------------------------------------------------------------
 Rotational constants (GHZ):           4.4637233           0.5601244           0.4997857
 Standard basis: 6-311++G(d,p) (5D, 7F)
 There are   286 symmetry adapted cartesian basis functions of A   symmetry.
 There are   276 symmetry adapted basis functions of A   symmetry.
   276 basis functions,   432 primitive gaussians,   286 cartesian basis functions
    35 alpha electrons       35 beta electrons
       nuclear repulsion energy       433.6112864881 Hartrees.
 NAtoms=   18 NActive=   18 NUniq=   18 SFac= 1.00D+00 NAtFMM=   60 NAOKFM=F Big=F
 Integral buffers will be    131072 words long.
 Raffenetti 2 integral format.
 Two-electron integral symmetry is turned on.
 R6APFD:  NTU= -4 IXU= 1 FactS= 1.050
 Nuclear repulsion after empirical dispersion term =      433.6040267834 Hartrees.
 One-electron integrals computed using PRISM.
 NBasis=   276 RedAO= T EigKep=  1.26D-06  NBF=   276
 NBsUse=   274 1.00D-06 EigRej=  2.29D-07 NBFU=   274
 Initial guess from the checkpoint file:  "PHPO0142.chk"
 B after Tr=    -0.000000    0.000000   -0.000000
         Rot=    0.999996   -0.000071   -0.000251   -0.002977 Ang=  -0.34 deg.
 ExpMin= 3.60D-02 ExpMax= 8.59D+03 ExpMxC= 1.30D+03 IAcc=3 IRadAn=         5 AccDes= 0.00D+00
 Harris functional with IExCor= 1009 and IRadAn=       5 diagonalized for initial guess.
 HarFok:  IExCor= 1009 AccDes= 0.00D+00 IRadAn=         5 IDoV= 1 UseB2=F ITyADJ=14
 ICtDFT=  3500011 ScaDFX=  1.000000  1.000000  1.000000  1.000000
 FoFCou: FMM=F IPFlag=           0 FMFlag=      100000 FMFlg1=           0
         NFxFlg=           0 DoJE=T BraDBF=F KetDBF=T FulRan=T
         wScrn=  0.000000 ICntrl=       500 IOpCl=  0 I1Cent=   200000004 NGrid=           0
         NMat0=    1 NMatS0=      1 NMatT0=    0 NMatD0=    1 NMtDS0=    0 NMtDT0=    0
 Petite list used in FoFCou.
 Requested convergence on RMS density matrix=1.00D-08 within  32 cycles.
 Requested convergence on MAX density matrix=1.00D-06.
 Requested convergence on             energy=1.00D-06.
 No special actions if energy rises.
 SCF Done:  E(RM08HX) =  -422.916586206     A.U. after   13 cycles
            NFock= 13  Conv=0.58D-08     -V/T= 2.0047
 QCSCF skips out because SCF is already converged.
 R6APFD:  NTU= -4 IXU= 1 FactS= 1.050
 Calling FoFJK, ICntrl=      2127 FMM=F ISym2X=0 I1Cent= 0 IOpClX= 0 NMat=1 NMatS=1 NMatT=0.
 ***** Axes restored to original set *****
 -------------------------------------------------------------------
 Center     Atomic                   Forces (Hartrees/Bohr)
 Number     Number              X              Y              Z
 -------------------------------------------------------------------
      1        8          -0.001298547    0.005159692    0.002041253
      2        6           0.001480540    0.002865890   -0.000503393
      3        6          -0.002990644    0.000729746    0.000073819
      4        6          -0.001710433   -0.001665050   -0.000003475
      5        6           0.000971433   -0.000387406    0.000052770
      6        6           0.000870220    0.000884099    0.000032079
      7        6          -0.000179882   -0.000030338   -0.000026437
      8        6          -0.001559621   -0.000797060    0.000388647
      9        6           0.002681391   -0.000369317   -0.003053733
     10        6          -0.000487329   -0.005900464    0.001337614
     11        1           0.000887881   -0.000276239   -0.000006421
     12        1           0.000800938    0.000447953   -0.000069658
     13        1           0.000018082    0.000127126   -0.000006567
     14        1           0.000115043   -0.000128934    0.000005628
     15        1           0.000156159    0.000035643    0.000004106
     16        1           0.000513892    0.000452528   -0.000434749
     17        1           0.000620256   -0.000098642    0.000630692
     18        1          -0.000889381   -0.001049228   -0.000462177
 -------------------------------------------------------------------
 Cartesian Forces:  Max     0.005900464 RMS     0.001509454

 GradGradGradGradGradGradGradGradGradGradGradGradGradGradGradGradGradGrad
 Berny optimization.
 Using GEDIIS/GDIIS optimizer.
 FormGI is forming the generalized inverse of G from B-inverse, IUseBI=4.
 Internal  Forces:  Max     0.008160315 RMS     0.001334917
 Search for a local minimum.
 Step number   2 out of a maximum of   90
 All quantities printed in internal units (Hartrees-Bohrs-Radians)
 Mixed Optimization -- RFO/linear search
 Update second derivatives using D2CorX and points    1    2
 DE= -9.21D-04 DEPred=-1.79D-03 R= 5.14D-01
 TightC=F SS=  1.41D+00  RLast= 2.13D-01 DXNew= 5.0454D-01 6.3817D-01
 Trust test= 5.14D-01 RLast= 2.13D-01 DXMaxT set to 5.05D-01
 ITU=  1  0
 Use linear search instead of GDIIS.
     Eigenvalues ---    0.00230   0.00923   0.01235   0.01528   0.01721
     Eigenvalues ---    0.02155   0.02155   0.02156   0.02156   0.02157
     Eigenvalues ---    0.02157   0.02157   0.02158   0.03885   0.04298
     Eigenvalues ---    0.06609   0.09361   0.11949   0.13399   0.15176
     Eigenvalues ---    0.16000   0.16000   0.16000   0.16000   0.16021
     Eigenvalues ---    0.21810   0.22000   0.22093   0.23456   0.25149
     Eigenvalues ---    0.33908   0.34381   0.35098   0.35107   0.35198
     Eigenvalues ---    0.35271   0.35273   0.36411   0.40993   0.41901
     Eigenvalues ---    0.42118   0.43414   0.45917   0.46471   0.46478
     Eigenvalues ---    0.46496   0.51860   1.03282
 RFO step:  Lambda=-2.61297304D-03 EMin= 2.29724792D-03
 Quartic linear search produced a step of -0.31340.
 Iteration  1 RMS(Cart)=  0.15306125 RMS(Int)=  0.01628526
 Iteration  2 RMS(Cart)=  0.07205714 RMS(Int)=  0.00334689
 Iteration  3 RMS(Cart)=  0.00455322 RMS(Int)=  0.00257929
 Iteration  4 RMS(Cart)=  0.00002618 RMS(Int)=  0.00257929
 Iteration  5 RMS(Cart)=  0.00000061 RMS(Int)=  0.00257929
 Variable       Old X    -DE/DX   Delta X   Delta X   Delta X     New X
                                 (Linear)    (Quad)   (Total)
    R1        2.68872  -0.00471  -0.00133  -0.00291  -0.00417   2.68455
    R2        1.81156   0.00044   0.00831  -0.02900  -0.02076   1.79080
    R3        2.64535   0.00077  -0.00295   0.01166   0.00871   2.65407
    R4        2.64548   0.00039  -0.00291   0.01094   0.00803   2.65351
    R5        2.70956  -0.00076  -0.00290   0.00900   0.00615   2.71572
    R6        2.62958  -0.00100   0.00199  -0.00853  -0.00654   2.62304
    R7        2.05579   0.00008  -0.00021   0.00092   0.00070   2.05650
    R8        2.62940  -0.00100   0.00210  -0.00895  -0.00685   2.62255
    R9        2.05576   0.00014  -0.00025   0.00116   0.00091   2.05667
   R10        2.63397   0.00001   0.00052  -0.00185  -0.00133   2.63264
   R11        2.05681   0.00009  -0.00138   0.00508   0.00370   2.06050
   R12        2.63417   0.00008   0.00058  -0.00199  -0.00140   2.63276
   R13        2.05680   0.00008  -0.00139   0.00508   0.00369   2.06050
   R14        2.05748  -0.00016  -0.00160   0.00534   0.00375   2.06123
   R15        2.27537   0.00094  -0.00072   0.00319   0.00250   2.27787
   R16        2.77364   0.00148  -0.00329   0.01448   0.01109   2.78473
   R17        2.06960   0.00075  -0.00078   0.00426   0.00349   2.07309
   R18        2.08047   0.00067  -0.00401   0.01554   0.01153   2.09200
    A1        1.88548   0.00100  -0.00206   0.01151   0.00961   1.89509
    A2        2.08597  -0.00003   0.00263  -0.00920  -0.00657   2.07940
    A3        2.09832   0.00108  -0.00120   0.00711   0.00591   2.10423
    A4        2.09889  -0.00105  -0.00143   0.00209   0.00066   2.09955
    A5        2.09629  -0.00007  -0.00055   0.00185   0.00130   2.09759
    A6        2.08752  -0.00092   0.00693  -0.02831  -0.02137   2.06615
    A7        2.09937   0.00098  -0.00638   0.02646   0.02008   2.11944
    A8        2.09639  -0.00021  -0.00068   0.00180   0.00112   2.09750
    A9        2.08727  -0.00083   0.00702  -0.02828  -0.02126   2.06601
   A10        2.09952   0.00104  -0.00634   0.02648   0.02014   2.11966
   A11        2.09801   0.00001  -0.00116   0.00407   0.00291   2.10092
   A12        2.08972  -0.00010   0.00150  -0.00566  -0.00416   2.08556
   A13        2.09545   0.00009  -0.00034   0.00160   0.00125   2.09670
   A14        2.09793   0.00023  -0.00110   0.00449   0.00339   2.10132
   A15        2.08984  -0.00028   0.00147  -0.00613  -0.00467   2.08517
   A16        2.09542   0.00005  -0.00036   0.00164   0.00128   2.09669
   A17        2.09178   0.00006   0.00086  -0.00301  -0.00215   2.08963
   A18        2.09580  -0.00004  -0.00044   0.00148   0.00104   2.09684
   A19        2.09561  -0.00002  -0.00042   0.00153   0.00110   2.09672
   A20        1.97219  -0.00206  -0.01794   0.05685   0.04263   2.01482
   A21        1.84647  -0.00013   0.01203  -0.03936  -0.01878   1.82769
   A22        1.94763  -0.00142  -0.01616   0.04651   0.03292   1.98055
   A23        1.91581   0.00175   0.00552  -0.01046  -0.00653   1.90928
   A24        1.90952   0.00084   0.01156  -0.04222  -0.03440   1.87512
   A25        1.86838   0.00123   0.00572  -0.01526  -0.02007   1.84832
   A26        3.16633  -0.00431  -0.00805  -0.03425  -0.04460   3.12173
   A27        3.00481   0.00816   0.04354   0.24859   0.29505   3.29986
   A28        3.13723   0.00037   0.00125   0.00205   0.00188   3.13911
   A29        3.10729   0.00163   0.01116   0.05072   0.06444   3.17173
    D1       -1.08972   0.00153  -0.01157   0.06531   0.05562  -1.03410
    D2        3.09688   0.00064  -0.01548   0.07133   0.05184  -3.13446
    D3        1.07086  -0.00002  -0.02056   0.08862   0.07038   1.14125
    D4        0.00022  -0.00013  -0.00007  -0.00104  -0.00119  -0.00096
    D5       -3.14034  -0.00013  -0.00042  -0.00017  -0.00066  -3.14100
    D6        3.14038   0.00022   0.00040   0.00210   0.00260  -3.14020
    D7       -0.00018   0.00022   0.00005   0.00297   0.00313   0.00295
    D8       -0.00064   0.00013   0.00023   0.00054   0.00084   0.00020
    D9        3.13834   0.00011   0.00102  -0.00235  -0.00124   3.13710
   D10       -3.14080  -0.00022  -0.00025  -0.00261  -0.00295   3.13944
   D11       -0.00182  -0.00025   0.00055  -0.00550  -0.00503  -0.00684
   D12       -3.08277  -0.00022  -0.00425   0.03660   0.03532  -3.04746
   D13       -1.04818   0.00109   0.01000   0.06252   0.06348  -0.98470
   D14        1.06122  -0.00045   0.00734  -0.11446  -0.10069   0.96053
   D15        0.06904  -0.00065  -0.00736   0.01856   0.01393   0.08298
   D16        2.10364   0.00065   0.00689   0.04448   0.04209   2.14573
   D17       -2.07015  -0.00089   0.00424  -0.13250  -0.12208  -2.19223
   D18        0.00051   0.00005  -0.00016   0.00093   0.00080   0.00131
   D19       -3.14094   0.00004  -0.00023   0.00102   0.00081  -3.14013
   D20        3.14106   0.00004   0.00019   0.00002   0.00024   3.14130
   D21       -0.00039   0.00003   0.00012   0.00011   0.00025  -0.00014
   D22        0.00033  -0.00005  -0.00016   0.00009  -0.00010   0.00023
   D23        3.14083  -0.00004   0.00025  -0.00112  -0.00090   3.13993
   D24       -3.13863  -0.00002  -0.00096   0.00307   0.00211  -3.13652
   D25        0.00187  -0.00001  -0.00055   0.00186   0.00131   0.00318
   D26       -0.00082   0.00003   0.00023  -0.00030  -0.00005  -0.00087
   D27       -3.14130  -0.00001  -0.00006   0.00007   0.00001  -3.14129
   D28        3.14063   0.00005   0.00030  -0.00039  -0.00006   3.14056
   D29        0.00015   0.00001   0.00001  -0.00002  -0.00000   0.00014
   D30        0.00040  -0.00003  -0.00007  -0.00021  -0.00030   0.00010
   D31        3.14088   0.00001   0.00022  -0.00058  -0.00036   3.14052
   D32       -3.14009  -0.00005  -0.00048   0.00101   0.00051  -3.13959
   D33        0.00039  -0.00000  -0.00019   0.00064   0.00045   0.00083
         Item               Value     Threshold  Converged?
 Maximum Force            0.008160     0.000450     NO 
 RMS     Force            0.001335     0.000300     NO 
 Maximum Displacement     0.902703     0.001800     NO 
 RMS     Displacement     0.217096     0.001200     NO 
 Predicted change in Energy=-1.614600D-03
 GradGradGradGradGradGradGradGradGradGradGradGradGradGradGradGradGradGrad

                          Input orientation:                          
 ---------------------------------------------------------------------
 Center     Atomic      Atomic             Coordinates (Angstroms)
 Number     Number       Type             X           Y           Z
 ---------------------------------------------------------------------
      1          8           0        4.487961   -0.624715   -0.045418
      2          6           0       -0.463829    0.009178    0.022169
      3          6           0       -1.235756    1.182246   -0.001871
      4          6           0       -1.112406   -1.236238    0.023930
      5          6           0       -2.621496    1.105432   -0.024700
      6          6           0       -2.498512   -1.300985    0.001896
      7          6           0       -3.258457   -0.133556   -0.022410
      8          6           0        0.971334    0.079196    0.047622
      9          6           0        3.610326    0.488730    0.044646
     10          6           0        2.173664    0.161849    0.071145
     11          1           0       -0.720351    2.140707   -0.003530
     12          1           0       -0.502050   -2.137211    0.038369
     13          1           0       -3.209767    2.023282   -0.044631
     14          1           0       -2.990152   -2.274223    0.001943
     15          1           0       -4.347626   -0.189473   -0.040684
     16          1           0        3.830713    1.090113   -0.845998
     17          1           0        3.817389    1.144453    0.912220
     18          1           0        4.337714   -1.188786    0.701100
 ---------------------------------------------------------------------
                    Distance matrix (angstroms):
                    1          2          3          4          5
     1  O    0.000000
     2  C    4.992656   0.000000
     3  C    6.002328   1.404471   0.000000
     4  C    5.634082   1.404178   2.421765   0.000000
     5  C    7.316982   2.420639   1.388055   2.786240   0.000000
     6  C    7.019287   2.420098   2.785858   1.387792   2.409704
     7  C    7.762007   2.798625   2.413105   2.413211   1.393131
     8  C    3.587592   1.437095   2.467877   2.464325   3.737221
     9  C    1.420604   4.102342   4.895676   5.027936   6.262646
    10  C    2.447088   2.642362   3.559591   3.571433   4.888057
    11  H    5.897103   2.147063   1.088252   3.399738   2.164855
    12  H    5.214871   2.146791   3.399815   1.088345   3.874372
    13  H    8.140449   3.406061   2.146134   3.876609   1.090372
    14  H    7.658022   3.405384   3.876222   2.145653   3.399806
    15  H    8.846302   3.889382   3.401008   3.400961   2.157906
    16  H    2.003381   4.512785   5.137135   5.532008   6.504289
    17  H    2.120541   4.517728   5.135296   5.546136   6.506810
    18  H    0.947649   4.995086   6.097502   5.492233   7.363479
                    6          7          8          9         10
     6  C    0.000000
     7  C    1.393197   0.000000
     8  C    3.734544   4.235717   0.000000
     9  C    6.365753   6.897239   2.670581   0.000000
    10  C    4.896316   5.440952   1.205397   1.473618   0.000000
    11  H    3.873904   3.408021   2.667254   4.635311   3.506677
    12  H    2.164824   3.408241   2.661467   4.879266   3.527916
    13  H    3.399824   2.157502   4.611897   6.991172   5.697339
    14  H    1.090368   2.157553   4.608040   7.155560   5.710011
    15  H    2.157891   1.090757   5.326473   7.987255   6.531704
    16  H    6.818751   7.240994   3.161734   1.097032   2.109180
    17  H    6.833700   7.250823   3.159483   1.107038   2.091590
    18  H    6.872806   7.703167   3.656135   1.942701   2.627579
                   11         12         13         14         15
    11  H    0.000000
    12  H    4.283689   0.000000
    13  H    2.492523   4.964708   0.000000
    14  H    4.964235   2.492138   4.303365   0.000000
    15  H    4.311409   4.311425   2.488177   2.488119   0.000000
    16  H    4.746124   5.474537   7.147123   7.652579   8.316917
    17  H    4.735209   5.494587   7.146246   7.671933   8.327956
    18  H    6.096396   4.976147   8.236381   7.440740   8.774053
                   16         17         18
    16  H    0.000000
    17  H    1.759109   0.000000
    18  H    2.800704   2.399857   0.000000
 Stoichiometry    C9H8O
 Framework group  C1[X(C9H8O)]
 Deg. of freedom    48
 Full point group                 C1      NOp   1
 Largest Abelian subgroup         C1      NOp   1
 Largest concise Abelian subgroup C1      NOp   1
                         Standard orientation:                         
 ---------------------------------------------------------------------
 Center     Atomic      Atomic             Coordinates (Angstroms)
 Number     Number       Type             X           Y           Z
 ---------------------------------------------------------------------
      1          8           0       -4.352337    0.584216   -0.109751
      2          6           0        0.599683   -0.040304    0.008921
      3          6           0        1.373677   -1.212253    0.006060
      4          6           0        1.246217    1.206151    0.001035
      5          6           0        2.759438   -1.133347   -0.005594
      6          6           0        2.632357    1.273001   -0.009673
      7          6           0        3.394361    0.106666   -0.012974
      8          6           0       -0.835533   -0.112465    0.022684
      9          6           0       -3.473736   -0.526532    0.001670
     10          6           0       -2.037889   -0.196885    0.036708
     11          1           0        0.859848   -2.171544    0.011682
     12          1           0        0.634310    2.106185   -0.000944
     13          1           0        3.349337   -2.050363   -0.009091
     14          1           0        3.122412    2.247007   -0.017296
     15          1           0        4.483558    0.164223   -0.022409
     16          1           0       -3.685342   -1.139187   -0.883404
     17          1           0       -3.687339   -1.171902    0.875399
     18          1           0       -4.209545    1.157671    0.631058
 ---------------------------------------------------------------------
 Rotational constants (GHZ):           4.8465252           0.5295445           0.4793461
 Standard basis: 6-311++G(d,p) (5D, 7F)
 There are   286 symmetry adapted cartesian basis functions of A   symmetry.
 There are   276 symmetry adapted basis functions of A   symmetry.
   276 basis functions,   432 primitive gaussians,   286 cartesian basis functions
    35 alpha electrons       35 beta electrons
       nuclear repulsion energy       431.2015198209 Hartrees.
 NAtoms=   18 NActive=   18 NUniq=   18 SFac= 1.00D+00 NAtFMM=   60 NAOKFM=F Big=F
 Integral buffers will be    131072 words long.
 Raffenetti 2 integral format.
 Two-electron integral symmetry is turned on.
 R6APFD:  NTU= -4 IXU= 1 FactS= 1.050
 Nuclear repulsion after empirical dispersion term =      431.1942676756 Hartrees.
 One-electron integrals computed using PRISM.
 NBasis=   276 RedAO= T EigKep=  1.26D-06  NBF=   276
 NBsUse=   274 1.00D-06 EigRej=  2.20D-07 NBFU=   274
 Initial guess from the checkpoint file:  "PHPO0142.chk"
 B after Tr=     0.000000   -0.000000    0.000000
         Rot=    0.999990    0.000815    0.000239    0.004361 Ang=   0.51 deg.
 ExpMin= 3.60D-02 ExpMax= 8.59D+03 ExpMxC= 1.30D+03 IAcc=3 IRadAn=         5 AccDes= 0.00D+00
 Harris functional with IExCor= 1009 and IRadAn=       5 diagonalized for initial guess.
 HarFok:  IExCor= 1009 AccDes= 0.00D+00 IRadAn=         5 IDoV= 1 UseB2=F ITyADJ=14
 ICtDFT=  3500011 ScaDFX=  1.000000  1.000000  1.000000  1.000000
 FoFCou: FMM=F IPFlag=           0 FMFlag=      100000 FMFlg1=           0
         NFxFlg=           0 DoJE=T BraDBF=F KetDBF=T FulRan=T
         wScrn=  0.000000 ICntrl=       500 IOpCl=  0 I1Cent=   200000004 NGrid=           0
         NMat0=    1 NMatS0=      1 NMatT0=    0 NMatD0=    1 NMtDS0=    0 NMtDT0=    0
 Petite list used in FoFCou.
 Requested convergence on RMS density matrix=1.00D-08 within  32 cycles.
 Requested convergence on MAX density matrix=1.00D-06.
 Requested convergence on             energy=1.00D-06.
 No special actions if energy rises.
 SCF Done:  E(RM08HX) =  -422.915791396     A.U. after   15 cycles
            NFock= 15  Conv=0.50D-08     -V/T= 2.0048
 QCSCF skips out because SCF is already converged.
 R6APFD:  NTU= -4 IXU= 1 FactS= 1.050
 Calling FoFJK, ICntrl=      2127 FMM=F ISym2X=0 I1Cent= 0 IOpClX= 0 NMat=1 NMatS=1 NMatT=0.
 ***** Axes restored to original set *****
 -------------------------------------------------------------------
 Center     Atomic                   Forces (Hartrees/Bohr)
 Number     Number              X              Y              Z
 -------------------------------------------------------------------
      1        8          -0.002919720    0.011448973   -0.004352533
      2        6          -0.001479050   -0.002763385    0.000676902
      3        6           0.006257843   -0.002323860    0.000150324
      4        6           0.004881482    0.002901445   -0.000263947
      5        6          -0.001822559    0.002348008   -0.000131958
      6        6          -0.001887041   -0.002798240   -0.000094682
      7        6          -0.001412134   -0.000108112    0.000009205
      8        6          -0.002692467    0.000341947    0.000704875
      9        6           0.001679758   -0.000467418   -0.002126577
     10        6           0.001167259    0.003994456   -0.003417512
     11        1          -0.001334612    0.000678269    0.000015862
     12        1          -0.001273234   -0.000680475    0.000117253
     13        1           0.000435467   -0.001088624    0.000031369
     14        1           0.000249075    0.001134510    0.000024732
     15        1           0.001599915    0.000102052    0.000039195
     16        1          -0.002480178    0.000071625   -0.000415497
     17        1           0.003059333   -0.004874674   -0.000230044
     18        1          -0.002029138   -0.007916497    0.009263031
 -------------------------------------------------------------------
 Cartesian Forces:  Max     0.011448973 RMS     0.003085644

 GradGradGradGradGradGradGradGradGradGradGradGradGradGradGradGradGradGrad
 Berny optimization.
 Using GEDIIS/GDIIS optimizer.
 FormGI is forming the generalized inverse of G from B-inverse, IUseBI=4.
 Internal  Forces:  Max     0.012345611 RMS     0.002409917
 Search for a local minimum.
 Step number   3 out of a maximum of   90
 All quantities printed in internal units (Hartrees-Bohrs-Radians)
 Mixed Optimization -- RFO/linear search
 Update second derivatives using D2CorX and points    1    3    2
 DE=  7.95D-04 DEPred=-1.61D-03 R=-4.92D-01
 Trust test=-4.92D-01 RLast= 3.80D-01 DXMaxT set to 2.52D-01
 ITU= -1  1  0
 Use linear search instead of GDIIS.
     Eigenvalues ---    0.00230   0.00976   0.01332   0.01453   0.02155
     Eigenvalues ---    0.02155   0.02156   0.02156   0.02157   0.02157
     Eigenvalues ---    0.02157   0.02158   0.03456   0.03773   0.05499
     Eigenvalues ---    0.06339   0.09031   0.12777   0.14208   0.15395
     Eigenvalues ---    0.16000   0.16000   0.16000   0.16000   0.16026
     Eigenvalues ---    0.21695   0.22001   0.22050   0.23490   0.25196
     Eigenvalues ---    0.34099   0.34370   0.35099   0.35109   0.35251
     Eigenvalues ---    0.35271   0.35275   0.36568   0.41159   0.41812
     Eigenvalues ---    0.42111   0.42758   0.46153   0.46471   0.46481
     Eigenvalues ---    0.46493   0.53115   1.03316
 RFO step:  Lambda=-4.72478097D-04 EMin= 2.29584826D-03
 Quartic linear search produced a step of -0.59513.
 Iteration  1 RMS(Cart)=  0.12007835 RMS(Int)=  0.00646278
 Iteration  2 RMS(Cart)=  0.01350923 RMS(Int)=  0.00091807
 Iteration  3 RMS(Cart)=  0.00008973 RMS(Int)=  0.00091726
 Iteration  4 RMS(Cart)=  0.00000017 RMS(Int)=  0.00091726
 Variable       Old X    -DE/DX   Delta X   Delta X   Delta X     New X
                                 (Linear)    (Quad)   (Total)
    R1        2.68455  -0.00616   0.00248  -0.01142  -0.00894   2.67561
    R2        1.79080   0.01235   0.01236   0.00887   0.02121   1.81201
    R3        2.65407  -0.00283  -0.00519  -0.00134  -0.00652   2.64754
    R4        2.65351  -0.00205  -0.00478  -0.00108  -0.00586   2.64765
    R5        2.71572  -0.00407  -0.00366  -0.00461  -0.00827   2.70744
    R6        2.62304   0.00132   0.00389  -0.00020   0.00369   2.62674
    R7        2.05650  -0.00004  -0.00042   0.00010  -0.00031   2.05618
    R8        2.62255   0.00153   0.00408  -0.00002   0.00406   2.62660
    R9        2.05667  -0.00015  -0.00054   0.00006  -0.00048   2.05620
   R10        2.63264   0.00056   0.00079   0.00051   0.00131   2.63394
   R11        2.06050  -0.00115  -0.00220  -0.00103  -0.00322   2.05728
   R12        2.63276   0.00045   0.00084   0.00050   0.00134   2.63410
   R13        2.06050  -0.00112  -0.00220  -0.00101  -0.00321   2.05729
   R14        2.06123  -0.00160  -0.00223  -0.00188  -0.00411   2.05712
   R15        2.27787  -0.00137  -0.00149   0.00002  -0.00147   2.27640
   R16        2.78473  -0.00308  -0.00660  -0.00091  -0.00751   2.77723
   R17        2.07309  -0.00012  -0.00207   0.00109  -0.00099   2.07210
   R18        2.09200  -0.00250  -0.00686  -0.00146  -0.00832   2.08367
    A1        1.89509   0.00078  -0.00572   0.00562  -0.00008   1.89501
    A2        2.07940   0.00190   0.00391   0.00246   0.00639   2.08579
    A3        2.10423  -0.00226  -0.00352  -0.00114  -0.00467   2.09956
    A4        2.09955   0.00037  -0.00039  -0.00132  -0.00172   2.09784
    A5        2.09759  -0.00046  -0.00077  -0.00106  -0.00184   2.09575
    A6        2.06615   0.00177   0.01272   0.00048   0.01320   2.07935
    A7        2.11944  -0.00131  -0.01195   0.00058  -0.01136   2.10808
    A8        2.09750  -0.00035  -0.00067  -0.00112  -0.00179   2.09571
    A9        2.06601   0.00165   0.01265   0.00041   0.01306   2.07908
   A10        2.11966  -0.00130  -0.01198   0.00071  -0.01127   2.10839
   A11        2.10092  -0.00048  -0.00173  -0.00052  -0.00226   2.09867
   A12        2.08556   0.00047   0.00248   0.00042   0.00289   2.08846
   A13        2.09670   0.00001  -0.00075   0.00011  -0.00064   2.09606
   A14        2.10132  -0.00083  -0.00202  -0.00060  -0.00262   2.09871
   A15        2.08517   0.00071   0.00278   0.00041   0.00319   2.08836
   A16        2.09669   0.00012  -0.00076   0.00019  -0.00057   2.09612
   A17        2.08963   0.00023   0.00128   0.00083   0.00211   2.09174
   A18        2.09684  -0.00013  -0.00062  -0.00051  -0.00113   2.09571
   A19        2.09672  -0.00009  -0.00066  -0.00033  -0.00098   2.09573
   A20        2.01482  -0.00358  -0.02537  -0.01015  -0.03721   1.97761
   A21        1.82769   0.00411   0.01118   0.01512   0.02394   1.85164
   A22        1.98055  -0.00316  -0.01959  -0.02078  -0.04188   1.93867
   A23        1.90928  -0.00174   0.00389   0.00477   0.00972   1.91900
   A24        1.87512   0.00446   0.02047   0.00653   0.02797   1.90309
   A25        1.84832   0.00004   0.01194   0.00688   0.02210   1.87042
   A26        3.12173   0.00425   0.02654  -0.00652   0.02098   3.14271
   A27        3.29986  -0.00883  -0.17559   0.00987  -0.16663   3.13322
   A28        3.13911   0.00058  -0.00112   0.00385   0.00487   3.14399
   A29        3.17173  -0.00132  -0.03835   0.05249   0.01237   3.18410
    D1       -1.03410  -0.00029  -0.03310   0.04959   0.01575  -1.01835
    D2       -3.13446   0.00109  -0.03085   0.03888   0.00901  -3.12545
    D3        1.14125   0.00012  -0.04189   0.03178  -0.01036   1.13089
    D4       -0.00096   0.00009   0.00071   0.00087   0.00224   0.00128
    D5       -3.14100   0.00008   0.00039   0.00051   0.00148  -3.13952
    D6       -3.14020  -0.00018  -0.00155  -0.00062  -0.00293   3.14006
    D7        0.00295  -0.00019  -0.00186  -0.00099  -0.00369  -0.00075
    D8        0.00020  -0.00011  -0.00050  -0.00113  -0.00229  -0.00210
    D9        3.13710  -0.00004   0.00074  -0.00033  -0.00016   3.13693
   D10        3.13944   0.00016   0.00175   0.00036   0.00287  -3.14088
   D11       -0.00684   0.00023   0.00299   0.00116   0.00500  -0.00185
   D12       -3.04746  -0.00252  -0.02102  -0.05396  -0.07655  -3.12401
   D13       -0.98470  -0.00114  -0.03778  -0.02105  -0.05735  -1.04205
   D14        0.96053   0.00316   0.05992  -0.01524   0.04161   1.00214
   D15        0.08298  -0.00230  -0.00829  -0.04830  -0.05605   0.02692
   D16        2.14573  -0.00091  -0.02505  -0.01539  -0.03685   2.10888
   D17       -2.19223   0.00339   0.07265  -0.00958   0.06211  -2.13012
   D18        0.00131  -0.00002  -0.00048  -0.00011  -0.00085   0.00045
   D19       -3.14013  -0.00003  -0.00048  -0.00035  -0.00101  -3.14115
   D20        3.14130  -0.00001  -0.00014   0.00026  -0.00005   3.14124
   D21       -0.00014  -0.00002  -0.00015   0.00002  -0.00021  -0.00035
   D22        0.00023   0.00005   0.00006   0.00063   0.00095   0.00119
   D23        3.13993   0.00007   0.00053   0.00091   0.00163   3.14156
   D24       -3.13652  -0.00003  -0.00126  -0.00020  -0.00128  -3.13780
   D25        0.00318  -0.00001  -0.00078   0.00009  -0.00061   0.00257
   D26       -0.00087  -0.00004   0.00003  -0.00040  -0.00050  -0.00138
   D27       -3.14129  -0.00002  -0.00000  -0.00042  -0.00038   3.14151
   D28        3.14056  -0.00003   0.00004  -0.00016  -0.00034   3.14022
   D29        0.00014  -0.00001   0.00000  -0.00018  -0.00022  -0.00008
   D30        0.00010   0.00003   0.00018   0.00014   0.00045   0.00056
   D31        3.14052   0.00001   0.00021   0.00016   0.00033   3.14086
   D32       -3.13959   0.00000  -0.00030  -0.00014  -0.00022  -3.13981
   D33        0.00083  -0.00001  -0.00027  -0.00012  -0.00034   0.00049
         Item               Value     Threshold  Converged?
 Maximum Force            0.012346     0.000450     NO 
[...]
 0060169,-0.0233157,0.0263688,-0.0049731,0.0249945,-0.1281906,0.1031469
 ,0.0211953,0.0036374,0.0222534,-0.127823,-0.0338683,0.0040154,-0.03060
 88,-0.0541401,0.9412348,-0.0834899,0.1606196,-0.1421286,0.5580166,-0.1
 845282,0.3426209,-0.205827,0.5756619,-0.4638154,0.0182919,-0.076574,-0
 .0835389,-0.1918693,0.052743,-0.0452338,0.0357046,-0.2488506,0.0522444
 ,-0.0605407,-0.0096965,-0.0534988,-0.0121899,-0.032772,-0.0082945,-0.0
 321841,0.1281562,0.0389905,0.0620758,0.0204382,0.0578082,0.0110033,-0.
 0323854,0.0178764,-0.0321729,0.1279903,0.0063858,0.0605626,0.0198677,0
 .0739401,-0.0195428,-0.04084,0.0241916,-0.0393635,0.1287069,0.0243738,
 -0.0549118,-0.0081569,-0.0675219,-0.0379122,-0.0386126,-0.0114196,-0.0
 391529,0.1304607,-0.0807277,-0.0129632,0.0074033,-0.0130434,0.0748755,
 -0.0151627,0.0074648,-0.0148032,0.1384895,-0.0924982,0.0031011,0.02880
 96,0.0682337,0.0657361,-0.0433899,0.0118453,-0.0009945,-0.0502987,-0.0
 757024,-0.0189767,-0.0188313,-0.0365158,-0.1316365,0.0366272,-0.056988
 ,-0.0252166,0.0385997,0.3382569,0.0605097,0.0977846,0.0654535,0.271931
 5,-0.0382771,0.1373574,-0.0096097,0.2642802\Polar=171.3424139,3.866611
 3,97.6766201,-0.9818537,6.4589699,67.1817424\Quadrupole=-0.8981909,2.0
 055968,-1.1074059,3.9755298,-0.3676886,1.5616297\PG=C01 [X(C9H8O1)]\NI
 mag=0\\0.25587225,-0.12454345,0.17226357,-0.15320561,-0.06329834,0.601
 37856,0.00036530,0.00029804,0.00029612,0.69294182,-0.00128618,-0.00005
 450,-0.00026370,0.00800170,0.62500993,0.00107635,-0.00022365,0.0002793
 1,-0.02489656,0.11186408,0.17248003,-0.00017817,0.00006999,-0.00021453
 ,-0.17575910,0.05065271,0.01709527,0.69739981,-0.00040917,0.00014944,-
 0.00019944,0.11554551,-0.25240540,-0.04983558,0.04517117,0.68850388,-0
 .00028464,0.00009124,-0.00010639,0.03240870,-0.04673204,-0.07640109,-0
 .01582877,0.12776280,0.16566427,-0.00056319,0.00024406,-0.00033455,-0.
 15303670,-0.03731961,-0.00410888,0.07176409,-0.01652183,-0.00694370,0.
 70872264,0.00041351,-0.00033885,0.00019109,-0.10240124,-0.27691628,-0.
 04491782,0.03548316,-0.05293497,-0.01593029,-0.03459284,0.67589336,0.0
 0032872,-0.00033787,0.00024751,-0.01946147,-0.04809027,-0.07446198,0.0
 0512205,-0.01348421,0.00425095,-0.03583044,0.12861694,0.16710024,-0.00
 004715,0.00009234,-0.00003469,-0.03586434,0.07613109,0.01999307,-0.347
 95727,-0.05442094,0.00035434,-0.05618878,-0.03620102,-0.00604736,0.696
 53179,-0.00026182,0.00009606,-0.00008694,0.02065992,0.04703983,0.00882
 908,0.01896146,-0.13004710,-0.01689691,-0.03678126,-0.02524391,-0.0026
 9533,-0.02862336,0.68930027,0.00002892,0.00001194,-0.00001245,0.006924
 14,0.00589052,0.00683226,0.01758368,-0.01327204,-0.06606395,-0.0062457
 6,-0.00290169,-0.00600229,-0.03262141,0.13052169,0.16695071,-0.0001148
 7,0.00009733,-0.00004591,-0.02024473,-0.08639867,-0.01908086,-0.065845
 11,0.02949265,0.00973835,-0.34778296,0.01902242,0.01818642,0.07516529,
 0.03773035,0.00560999,0.68705394,0.00022710,0.00005586,0.00003695,-0.0
 3072298,0.03003298,0.00738714,0.03014993,-0.01475402,-0.00349664,-0.05
 453041,-0.13020550,-0.01343411,-0.01793244,-0.05450639,-0.01340190,0.0
 3637651,0.69943928,-0.00021489,0.00008952,-0.00000247,-0.00608476,0.00
 973470,0.00845325,0.01007476,-0.00354722,-0.00698709,0.00094189,-0.016
 86556,-0.06605733,-0.00758363,-0.01612781,0.00297729,-0.01832167,0.130
 03572,0.16595306,-0.00046146,0.00008279,-0.00023183,0.00147683,0.00579
 319,0.00095981,-0.01753211,-0.03322106,-0.00664130,-0.03386207,0.02344
 568,0.00754167,-0.17145851,-0.11831152,-0.02255270,-0.19644598,0.12955
 039,0.03682137,0.74317179,-0.00004873,0.00000050,-0.00001539,0.0057895
 7,-0.07710862,-0.01719188,-0.08930152,0.02991003,0.00969606,0.07944636
 ,0.04793851,0.00584500,-0.04280894,-0.28980120,-0.05078670,0.05406018,
 -0.26182714,-0.04915474,0.01213504,0.63938822,0.00004392,-0.00002845,0
 .00000551,0.00100879,-0.01688124,-0.01009885,-0.01974444,0.00700773,0.
 00908403,0.02051843,0.00854980,0.00744666,-0.00486791,-0.04724968,-0.0
 7296643,0.01917120,-0.05284429,-0.07525721,-0.02626233,0.11701661,0.16
 337557,0.00244303,-0.00025839,-0.00138219,-0.30444806,-0.01795742,0.00
 810675,-0.04000118,0.01107313,0.00480934,-0.03377930,-0.01763690,-0.00
 269242,0.00512851,0.00531109,0.00105552,0.00606003,-0.00403546,-0.0004
 7216,-0.00211153,-0.00007559,-0.00004680,1.44602901,-0.00007802,0.0004
 4343,0.00008337,-0.01738876,-0.07814467,-0.00420703,0.02729279,0.00870
 817,0.00015589,-0.03386086,0.00144214,0.00158393,0.00380136,-0.0034190
 0,-0.00283480,-0.00239979,-0.00451928,-0.00285591,-0.00006184,-0.00180
 266,0.00014589,0.09598596,0.11391197,0.00045190,0.00004509,0.00052114,
 0.00846033,-0.00372358,-0.05473296,0.00838936,0.00087267,0.00181467,-0
 .00635743,0.00049439,0.00303660,0.00088225,-0.00303573,0.00775218,-0.0
 0035864,-0.00280278,0.00751214,0.00000856,0.00029904,-0.00216231,-0.04
 257181,0.00370892,0.07490784,-0.09794302,0.05457818,-0.04501073,0.0024
 5759,0.00022373,-0.00055641,-0.00001734,0.00099758,0.00044064,0.000180
 49,-0.00101627,-0.00050977,0.00022577,0.00046881,-0.00020923,0.0002456
 9,-0.00037177,0.00023553,0.00055862,0.00000989,-0.00002950,-0.00119915
 ,-0.00053327,-0.00086677,0.50503627,0.04904290,-0.13436953,0.08206959,
 -0.00054687,0.00661038,0.00033617,-0.00138725,-0.00045990,-0.00009669,
 0.00078782,0.00010411,0.00014595,-0.00024748,0.00034964,0.00013617,-0.
 00009583,-0.00007178,0.00010441,0.00013983,0.00004121,0.00000572,-0.00
 240040,0.00395564,0.00168769,0.01772112,0.52862408,-0.01681355,0.05399
 095,-0.15466991,-0.00052076,0.00026438,0.00604811,0.00001966,0.0000502
 4,-0.00010770,0.00067647,-0.00015284,-0.00013436,-0.00003700,0.0001734
 1,-0.00011571,-0.00003325,0.00020398,-0.00072966,0.00026778,-0.0000011
 5,0.00012280,0.00465702,0.00149487,0.00218999,-0.05001460,0.03982668,0
 .54910716,-0.02890343,0.01209265,-0.01315512,-0.01860647,-0.00152987,0
 .00100204,0.00455476,-0.00768207,-0.00213738,0.00338947,0.00836223,0.0
 0211009,-0.00220880,-0.00027210,0.00037354,-0.00222573,-0.00008722,-0.
 00033325,0.00085878,0.00006334,-0.00000355,-1.07692577,-0.07303294,0.0
 3208587,-0.26872574,-0.02267420,0.00776824,1.42183141,0.02733150,0.002
 21257,0.00359121,-0.00210788,0.00609716,0.00028221,0.00079533,-0.00174
 078,-0.00074996,0.00007961,-0.00043672,-0.00048648,-0.00093330,-0.0000
 8802,0.00024439,0.00057719,0.00036762,0.00021272,-0.00013835,0.0007698
 8,0.00004170,-0.07084890,-0.04147106,0.00090163,-0.02369811,-0.0712101
 9,-0.00168613,0.09261390,0.10165566,-0.03025774,0.00487396,-0.00242875
 ,0.00053501,-0.00007152,0.00351109,0.00019614,-0.00046092,0.00190641,-
 0.00023536,-0.00072454,0.00099549,-0.00016830,0.00016246,-0.00099110,0
 .00027156,0.00013079,-0.00030166,-0.00013379,0.00006831,0.00041159,0.0
 3032960,0.00123994,-0.03370640,0.01493506,-0.00470073,-0.06459547,-0.0
 3546618,-0.00362341,0.08841977,0.00009467,-0.00007853,0.00007505,0.010
 26545,0.01689466,0.00366735,-0.11384504,-0.11125675,-0.02236486,-0.001
 45770,0.00327042,0.00116307,-0.00712828,-0.02794253,-0.00600514,-0.000
 90269,0.00084467,0.00018442,-0.00577562,0.00044016,0.00074282,0.001395
 70,0.00043629,-0.00017653,-0.00014079,0.00010265,-0.00005706,-0.000224
 56,-0.00036309,-0.00004305,0.11714670,-0.00003999,0.00005555,-0.000027
 07,-0.01387872,-0.01660061,-0.00407065,-0.10918367,-0.27346235,-0.0500
 6412,0.00395422,-0.00197954,-0.00222339,0.00173958,0.00242471,-0.00037
 078,0.00085166,0.00034627,0.00030170,-0.00001854,0.00221009,-0.0012625
 2,-0.00103883,0.00031234,0.00102008,0.00006425,-0.00010214,-0.00000423
 ,0.00068001,0.00028759,0.00002968,0.11779545,0.28723479,-0.00004204,0.
 00003049,-0.00005745,-0.00346118,-0.00552231,0.00245786,-0.02196437,-0
 .04984076,-0.04833720,0.00134092,-0.00219283,0.00618212,0.00095052,0.0
 0099867,0.00392143,0.00017106,0.00032869,-0.00108522,0.00061358,-0.001
 30971,0.00734820,-0.00041157,0.00088229,-0.00358079,0.00012866,-0.0000
 6455,0.00014239,0.00002497,0.00004153,0.00003005,0.02312400,0.05565496
 ,0.03762419,0.00009014,0.00001045,0.00005403,0.01015820,-0.01293102,-0
 .00337944,-0.00044708,-0.00311323,-0.00037800,-0.14860412,0.12808053,0
 .03538285,-0.00062429,-0.00098751,-0.00025831,-0.01064748,0.02573054,0
 .00669009,-0.00547317,-0.00173663,0.00024486,0.00127154,-0.00029810,-0
 .00032564,-0.00009995,0.00006590,-0.00000082,-0.00018806,0.00023661,0.
 00007183,0.00051441,-0.00066683,-0.00017181,0.15414946,0.00006125,0.00
 000554,0.00005001,0.01775140,-0.01650516,-0.00560396,-0.00381245,-0.00
 309047,-0.00212092,0.12588498,-0.23550354,-0.05264345,-0.00096335,0.00
 005533,0.00033604,-0.00385554,0.00630852,0.00084096,-0.00131845,0.0019
 1039,-0.00129583,0.00128026,0.00039007,0.00095158,-0.00006052,0.000024
 40,-0.00009644,-0.00074755,0.00017920,0.00008386,0.00087203,-0.0009238
 5,-0.00030655,-0.13539428,0.24676609,0.00011159,0.00007976,-0.00005568
 ,0.00369902,-0.00406313,0.00250684,-0.00056557,-0.00214934,0.00629548,
 0.03494326,-0.05263374,-0.05201717,-0.00022364,0.00034792,-0.00106525,
 -0.00023577,-0.00067445,0.00361869,0.00035026,-0.00128652,0.00737659,0
 .00001227,0.00091815,-0.00362774,-0.00008597,-0.00011324,0.00033666,-0
 .00005423,0.00006102,-0.00005868,0.00019291,-0.00023086,0.00015828,-0.
 03789275,0.05854205,0.04145501,-0.00010675,0.00003659,-0.00006461,-0.0
 0507759,-0.00154593,0.00021241,-0.01161790,0.02670314,0.00694845,-0.00
 076656,-0.00105176,-0.00026224,-0.14524983,0.12434586,0.03397434,-0.00
 018186,-0.00322069,-0.00038758,0.01154245,-0.01231559,-0.00327437,-0.0
 0050585,0.00127632,0.00032404,0.00015466,-0.00012513,0.00004041,-0.000
 43768,-0.00009682,-0.00001298,0.00051687,-0.00036716,-0.00029687,0.000
 03624,0.00009549,-0.00002764,0.15082904,0.00005419,-0.00001335,0.00002
 888,-0.00144386,0.00216758,-0.00119487,-0.00351899,0.00556689,0.000698
 00,-0.00110056,0.00002728,0.00032422,0.12447889,-0.23700842,-0.0523997
 5,-0.00372594,-0.00330380,-0.00232009,0.01792380,-0.01603744,-0.005357
 86,-0.00007595,0.00021812,-0.00002590,-0.00006426,-0.00001189,-0.00003
 039,-0.00002826,-0.00004557,0.00003793,0.00041909,0.00032457,0.0010200
 0,0.00009618,-0.00006946,0.00021675,-0.13353299,0.24876030,0.00001808,
 0.00000194,-0.00000083,0.00027512,-0.00119789,0.00738890,-0.00011869,-
 0.00074451,0.00322176,-0.00028720,0.00031465,-0.00103835,0.03397782,-0
 .05239018,-0.05168579,-0.00047973,-0.00239010,0.00691641,0.00379133,-0
 .00387163,0.00227582,0.00001146,-0.00008915,0.00021599,-0.00001811,-0.
 00000294,-0.00000455,0.00001245,0.00003311,-0.00011243,-0.00012632,0.0
 0106287,-0.00391426,-0.00002914,0.00021744,-0.00097859,-0.03691573,0.0
 5827793,0.04141426,-0.00011933,0.00006961,-0.00007314,-0.00533743,0.00
 024515,0.00070474,-0.00105897,0.00092422,0.00021524,-0.00791117,-0.028
 85594,-0.00621117,-0.00121799,0.00342063,0.00121782,-0.11169002,-0.107
 25777,-0.02131459,0.01177826,0.01650353,0.00344181,-0.00034135,-0.0013
 6983,-0.00026179,0.00015033,-0.00000899,0.00008274,-0.00044315,0.00006
 116,-0.00000197,0.00006044,-0.00006145,-0.00006704,0.00051148,0.000463
 29,-0.00012916,0.00039361,0.00087309,0.00018553,0.11474193,-0.00006355
 ,0.00001979,-0.00003000,0.00019192,0.00244492,-0.00121955,0.00095356,0
 .00037513,0.00030236,0.00141686,0.00160053,-0.00048140,0.00391009,-0.0
 0218657,-0.00243267,-0.10738267,-0.27420583,-0.04998185,-0.01380149,-0
 .01620765,-0.00388424,-0.00002255,0.00001128,-0.00005813,0.00008096,-0
 .00001331,0.00002877,-0.00003108,-0.00005660,0.00001081,-0.00006198,-0
 .00009478,0.00022191,-0.00031712,0.00032347,0.00106021,-0.00067127,-0.
 00092469,-0.00019562,0.11535943,0.28857298,-0.00002153,0.00001651,-0.0
 0003159,0.00068552,-0.00121516,0.00736644,0.00023735,0.00030163,-0.001
 07231,0.00084797,0.00100409,0.00358751,0.00130310,-0.00243825,0.006815
 13,-0.02132673,-0.05000653,-0.04846685,-0.00363265,-0.00532223,0.00228
 507,0.00003561,-0.00000102,0.00025622,0.00003466,-0.00001199,0.0000274
 1,-0.00000856,0.00001584,-0.00012940,-0.00006660,0.00022152,-0.0009804
 2,-0.00029820,0.00101905,-0.00390957,-0.00017525,-0.00026986,-0.000002
 65,0.02248860,0.05567932,0.03794234,-0.00004531,0.00001363,-0.00002795
 ,0.00081318,0.00018884,-0.00004540,0.00100525,-0.00283891,-0.00035411,
 0.00018743,0.00338165,0.00113253,-0.00902145,0.00215233,0.00109956,-0.
 01239254,-0.00461325,-0.00032711,-0.33616388,-0.02215604,0.00904924,0.
 00000415,0.00000282,-0.00005250,0.00005709,-0.00002943,0.00001976,-0.0
 0005875,0.00000022,0.00000626,-0.00053897,0.00016308,0.00006325,-0.000
 68531,-0.00027669,-0.00002880,0.00055037,-0.00036057,-0.00029438,0.000
 54732,0.00045756,-0.00010490,0.35574869,-0.00000265,0.00001247,-0.0000
 0243,0.00018605,-0.00155107,-0.00011684,-0.00236051,-0.00439559,-0.002
 65552,0.00292216,-0.00348043,-0.00269996,-0.02809967,0.00309423,0.0012
 6619,0.02562341,0.00685733,-0.00044086,-0.02214942,-0.05936876,-0.0039
 7240,0.00000067,0.00009668,0.00026563,0.00000764,-0.00002024,-0.000011
 49,-0.00000635,0.00004992,0.00000683,-0.00138641,-0.00000931,0.0000539
 4,0.00126292,0.00017455,-0.00002950,0.00045541,0.00035160,0.00098079,-
 0.00036109,0.00034060,0.00101253,0.02390687,0.05785392,0.00000960,0.00
 000468,-0.00000433,-0.00005289,-0.00007057,-0.00112490,-0.00026546,-0.
 00262687,0.00687591,0.00106265,-0.00271646,0.00679728,-0.00592336,-0.0
 0016942,0.00372466,0.00670574,0.00099408,0.00339852,0.00903472,-0.0039
 7625,-0.03924861,-0.00004371,0.00022829,-0.00097687,-0.00000124,-0.000
 02197,0.00005493,-0.00000058,0.00000988,0.00002822,-0.00029669,-0.0000
 2136,0.00003097,0.00032858,0.00004479,0.00000876,-0.00010687,0.0010072
 1,-0.00370440,-0.00029661,0.00096993,-0.00369277,-0.01014630,0.0063454
 7,0.02782972,0.00650160,-0.00088671,-0.01854508,-0.00006826,-0.0005256
 9,-0.00111992,0.00005327,-0.00016460,0.00005458,-0.00030447,0.00028003
 ,-0.00007166,-0.00000955,-0.00014280,-0.00005219,-0.00003445,0.0000059
 8,0.00018725,-0.00019554,-0.00001196,-0.00001205,-0.00029112,-0.000608
 12,-0.00090845,-0.08038308,0.02461433,0.08975996,-0.01892295,0.0096240
 3,0.02905501,0.00002004,-0.00001178,0.00001105,-0.00001234,-0.00000450
 ,-0.00003948,-0.00002754,0.00001923,0.00000187,-0.00004523,-0.00002410
 ,0.00000479,-0.00000519,0.00000008,-0.00000822,0.09017106,-0.00651820,
 0.00331370,0.02877497,0.00019891,-0.00006957,-0.00016868,-0.00001069,0
 .00007135,-0.00000263,-0.00003119,-0.00004485,0.00001359,0.00004921,0.
 00001670,0.00005061,0.00002868,-0.00003174,-0.00004225,0.00002012,-0.0
 0000611,-0.00000656,-0.00106321,0.00017270,-0.00036470,0.02700552,-0.0
 6910740,-0.07527301,-0.00186336,0.00225132,0.00521421,-0.00000772,0.00
 000546,-0.00002215,-0.00001867,-0.00002040,0.00001752,0.00000980,-0.00
 000509,-0.00000239,0.00000331,0.00000584,-0.00000026,0.00000507,-0.000
 00097,0.00000082,-0.03079213,0.07307573,0.00491956,0.00214889,-0.02995
 066,0.00044919,0.00008087,-0.00020735,-0.00011275,0.00007187,-0.000011
 14,-0.00007438,-0.00008653,0.00000506,0.00004578,-0.00001530,-0.000032
 30,0.00002832,0.00001546,0.00006859,-0.00007879,-0.00001302,-0.0000059
 7,-0.00199571,-0.00039045,-0.00017385,0.08067693,-0.06494570,-0.250853
 11,0.00481507,0.00039721,0.00374664,-0.00000460,-0.00000397,0.00001009
 ,-0.00000993,-0.00000172,-0.00001832,-0.00000240,0.00000439,0.00000018
 ,-0.00000062,-0.00000456,-0.00000501,0.00000190,-0.00000048,0.00000003
 ,-0.08728173,0.06390564,0.28336060,0.00489013,0.01919632,-0.00194930,0
 .00026515,0.00134873,0.00033619,-0.00062265,-0.00039298,-0.00009865,-0
 .00010508,0.00009910,0.00006380,-0.00007845,0.00021727,0.00008342,-0.0
 0002239,-0.00005075,-0.00005051,-0.00003299,0.00000434,0.00000704,-0.0
 0146282,0.00106799,0.00049012,-0.06647186,-0.06681558,-0.01115649,-0.0
 1621452,-0.03287204,-0.00713877,0.00001980,-0.00000361,-0.00000701,0.0
 0008158,0.00006261,0.00001761,-0.00008577,0.00000182,0.00000450,-0.000
 04582,-0.00001486,-0.00000189,-0.00002066,0.00000183,0.00000170,0.0045
 7654,0.01072515,0.00244641,0.07558664,0.00352113,-0.01470914,0.0070668
 8,-0.00012722,-0.00004899,0.00012837,0.00003032,-0.00003248,0.00002043
 ,0.00008634,0.00000435,-0.00004637,0.00002987,-0.00003000,-0.00003083,
 0.00001416,0.00005604,0.00001387,-0.00004188,-0.00000678,0.00000101,0.
 00143130,-0.00003046,-0.00028513,-0.06412437,-0.26418922,-0.04679533,-
 0.00615285,0.00046391,-0.00133766,0.00000006,0.00000150,0.00001516,-0.
 00000192,-0.00000677,0.00000958,0.00000201,0.00000118,-0.00000088,0.00
 000938,-0.00000143,0.00000224,0.00000204,0.00000036,0.00000339,-0.0028
 3572,-0.00759400,-0.00316215,0.06790247,0.28671614,0.00035515,0.028699
 45,0.00068769,0.00014621,-0.00007787,-0.00017629,-0.00009408,-0.000015
 12,-0.00006032,-0.00011438,0.00000033,0.00008376,-0.00001335,0.0000448
 9,0.00000508,-0.00001474,-0.00005283,-0.00001294,0.00000541,-0.0000033
 7,0.00000116,0.00015607,-0.00005385,0.00073464,-0.01173875,-0.05105079
 ,-0.05993209,0.00273935,0.00233053,0.00158932,0.00002961,-0.00002034,0
 .00001414,0.00001963,0.00002068,-0.00000796,-0.00001519,0.00000035,0.0
 0000722,-0.00001736,-0.00000330,-0.00000275,-0.00000848,-0.00000090,0.
 00000096,-0.00830903,-0.02620740,-0.00422526,0.01624117,0.04476445,0.0
 6049572,-0.14177442,0.03888508,0.23385003,-0.00030086,0.00001457,0.000
 03352,0.00010474,0.00011413,0.00006178,0.00011798,-0.00008277,0.000055
 31,0.00000333,0.00005519,-0.00000620,0.00000586,-0.00006239,-0.0000451
 7,0.00012614,0.00000258,0.00001284,-0.00126583,-0.00023200,0.00078712,
 0.00591442,0.00185660,-0.02465850,0.00345119,-0.00026107,-0.00194232,-
 0.00002042,0.00002233,-0.00000612,-0.00003124,-0.00003799,-0.00004392,
 0.00003410,-0.00001490,-0.00000886,0.00002708,0.00002028,-0.00000126,0
 .00001856,-0.00000094,-0.00000106,-0.00102281,0.00225941,-0.00382226,-
 0.00025685,0.00025488,0.00063275,0.13486903,0.05260017,-0.02914311,-0.
 05796963,-0.00000549,0.00000211,-0.00007654,0.00001466,0.00003816,0.00
 001895,-0.00008387,0.00007431,0.00009321,-0.00000194,-0.00004617,-0.00
 002641,-0.00001612,-0.00003843,0.00000267,-0.00002829,-0.00000248,0.00
 001458,0.00033118,-0.00027539,0.00004921,-0.01128909,-0.00015387,0.028
 01770,0.00029571,0.00071410,-0.00094001,0.00002153,-0.00003029,0.00001
 120,-0.00001782,-0.00001790,-0.00007216,0.00000270,0.00000219,-0.00000
 345,-0.00001774,-0.00000368,-0.00000742,0.00000078,-0.00000528,-0.0000
 0563,0.00146445,-0.00203270,0.00199955,-0.00047782,-0.00059419,0.00162
 509,-0.04279300,0.03151262,0.19349620,-0.02619613,-0.41579922,-0.00041
 052,0.00007472,-0.00012070,0.00019040,0.00010906,0.00003372,0.00020048
 ,-0.00004898,-0.00002172,0.00001377,0.00002744,-0.00004348,0.00001468,
 -0.00002920,0.00000246,0.00013890,0.00000756,0.00000636,0.00044274,-0.
 00000935,0.00001952,0.01258959,-0.00330377,-0.02688691,0.00022721,-0.0
 0161700,0.00168532,-0.00003839,0.00000847,0.00003560,-0.00004783,-0.00
 003760,-0.00001735,0.00004207,-0.00001694,0.00000133,0.00003698,0.0000
 1801,0.00001320,0.00001744,-0.00000099,0.00000190,-0.00272668,0.004112
 65,-0.00170822,0.00071064,-0.00036704,0.00079792,-0.20489768,0.0272690
 8,0.44200025\\0.00000022,-0.00000459,0.00001298,-0.00000520,-0.0000022
 3,0.00000223,0.00000362,-0.00000035,-0.00000390,0.00000589,0.00000273,
 0.00000474,-0.00000117,-0.00000032,-0.00000015,-0.00000437,0.00000354,
 0.00000295,-0.00000002,-0.00000106,0.00000227,0.00000136,-0.00000047,-
 0.00000272,-0.00000303,0.00000138,-0.00001464,0.00000180,0.00000058,0.
 00000184,-0.00000110,0.00000161,-0.00000308,-0.00000324,-0.00000200,0.
 00000231,0.00000167,0.00000282,-0.00000181,0.00000002,-0.00000158,0.00
 000556,-0.00000072,0.00000076,0.00000225,0.00000009,-0.00000111,-0.000
 00451,0.00000012,-0.00000081,-0.00000317,0.00000405,0.00000110,-0.0000
 0315\\\@


 NOTHING WILL BE ATTEMPTED IF ALL POSSIBLE OBJECTIONS
 MUST FIRST BE OVERCOME.

                               -- THE GOLDEN PRINCIPLE,
                    PAUL DICKSON'S "THE OFFICIAL RULES"
 Job cpu time:       0 days  1 hours 52 minutes 29.3 seconds.
 Elapsed time:       0 days  0 hours  7 minutes  4.5 seconds.
 File lengths (MBytes):  RWF=    129 Int=      0 D2E=      0 Chk=      7 Scr=      1
 Normal termination of Gaussian 16 at Sun Sep 21 08:57:05 2025.
