 Entering Gaussian System, Link 0=g16
 Input=PHRE0143.gjf
 Output=PHRE0143.log
 Initial command:
 /usr/local/g16/l1.exe "/dados_01/scratch/Gau-2183640.inp" -scrdir="/dados_01/scratch/"
 Entering Link 1 = /usr/local/g16/l1.exe PID=   2183641.
  
 Copyright (c) 1988-2017, Gaussian, Inc.  All Rights Reserved.
  
 This is part of the Gaussian(R) 16 program.  It is based on
 the Gaussian(R) 09 system (copyright 2009, Gaussian, Inc.),
 the Gaussian(R) 03 system (copyright 2003, Gaussian, Inc.),
 the Gaussian(R) 98 system (copyright 1998, Gaussian, Inc.),
 the Gaussian(R) 94 system (copyright 1995, Gaussian, Inc.),
 the Gaussian 92(TM) system (copyright 1992, Gaussian, Inc.),
 the Gaussian 90(TM) system (copyright 1990, Gaussian, Inc.),
 the Gaussian 88(TM) system (copyright 1988, Gaussian, Inc.),
 the Gaussian 86(TM) system (copyright 1986, Carnegie Mellon
 University), and the Gaussian 82(TM) system (copyright 1983,
 Carnegie Mellon University). Gaussian is a federally registered
 trademark of Gaussian, Inc.
  
 This software contains proprietary and confidential information,
 including trade secrets, belonging to Gaussian, Inc.
  
 This software is provided under written license and may be
 used, copied, transmitted, or stored only in accord with that
 written license.
  
 The following legend is applicable only to US Government
 contracts under FAR:
  
                    RESTRICTED RIGHTS LEGEND
  
 Use, reproduction and disclosure by the US Government is
 subject to restrictions as set forth in subparagraphs (a)
 and (c) of the Commercial Computer Software - Restricted
 Rights clause in FAR 52.227-19.
  
 Gaussian, Inc.
 340 Quinnipiac St., Bldg. 40, Wallingford CT 06492
  
  
 ---------------------------------------------------------------
 Warning -- This program may not be used in any manner that
 competes with the business of Gaussian, Inc. or will provide
 assistance to any competitor of Gaussian, Inc.  The licensee
 of this program is prohibited from giving any competitor of
 Gaussian, Inc. access to this program.  By using this program,
 the user acknowledges that Gaussian, Inc. is engaged in the
 business of creating and licensing software in the field of
 computational chemistry and represents and warrants to the
 licensee that it is not a competitor of Gaussian, Inc. and that
 it will not use this program in any manner prohibited above.
 ---------------------------------------------------------------
  

 Cite this work as:
 Gaussian 16, Revision B.01,
 M. J. Frisch, G. W. Trucks, H. B. Schlegel, G. E. Scuseria, 
 M. A. Robb, J. R. Cheeseman, G. Scalmani, V. Barone, 
 G. A. Petersson, H. Nakatsuji, X. Li, M. Caricato, A. V. Marenich, 
 J. Bloino, B. G. Janesko, R. Gomperts, B. Mennucci, H. P. Hratchian, 
 J. V. Ortiz, A. F. Izmaylov, J. L. Sonnenberg, D. Williams-Young, 
 F. Ding, F. Lipparini, F. Egidi, J. Goings, B. Peng, A. Petrone, 
 T. Henderson, D. Ranasinghe, V. G. Zakrzewski, J. Gao, N. Rega, 
 G. Zheng, W. Liang, M. Hada, M. Ehara, K. Toyota, R. Fukuda, 
 J. Hasegawa, M. Ishida, T. Nakajima, Y. Honda, O. Kitao, H. Nakai, 
 T. Vreven, K. Throssell, J. A. Montgomery, Jr., J. E. Peralta, 
 F. Ogliaro, M. J. Bearpark, J. J. Heyd, E. N. Brothers, K. N. Kudin, 
 V. N. Staroverov, T. A. Keith, R. Kobayashi, J. Normand, 
 K. Raghavachari, A. P. Rendell, J. C. Burant, S. S. Iyengar, 
 J. Tomasi, M. Cossi, J. M. Millam, M. Klene, C. Adamo, R. Cammi, 
 J. W. Ochterski, R. L. Martin, K. Morokuma, O. Farkas, 
 J. B. Foresman, and D. J. Fox, Gaussian, Inc., Wallingford CT, 2016.
 
 ******************************************
 Gaussian 16:  ES64L-G16RevB.01 20-Dec-2017
                21-Sep-2025 
 ******************************************
 %nprocs=16
 Will use up to   16 processors via shared memory.
 %mem=40GB
 %chk=PHRE0143.chk
 ----------------------------------------------------------------------
 # opt freq=noraman M08HX/6-311++G** scf=xqc Empiricaldispersion=pfd In
 t(Grid=ultraFine)
 ----------------------------------------------------------------------
 1/18=20,19=15,26=4,38=1/1,3;
 2/9=110,12=2,17=6,18=5,40=1/2;
 3/5=4,6=6,7=1111,11=2,25=1,30=1,71=1,74=-74,75=-5,124=11/1,2,3;
 4//1;
 5/5=2,8=3,13=1,38=5/2,8;
 6/7=2,8=2,9=2,10=2,28=1/1;
 7//1,2,3,16;
 1/18=20,19=15,26=4/3(2);
 2/9=110/2;
 99//99;
 2/9=110/2;
 3/5=4,6=6,7=1111,11=2,25=1,30=1,71=1,74=-74,75=-5,124=11/1,2,3;
 4/5=5,16=3,69=1/1;
 5/5=2,8=3,13=1,38=5/2,8;
 7//1,2,3,16;
 1/18=20,19=15,26=4/3(-5);
 2/9=110/2;
 6/7=2,8=2,9=2,10=2,19=2,28=1/1;
 99/9=1/99;
 --------
 PHRE0143
 --------
 Symbolic Z-matrix:
 Charge =  0 Multiplicity = 1
 O                     1.3173    2.7983    0.0048 
 O                    -1.3175    2.7982   -0.0035 
 C                     0.743    -0.7767   -0.0002 
 C                    -0.743    -0.7767    0.0003 
 C                     1.4664    0.4317   -0.0003 
 C                    -1.4665    0.4317   -0.0005 
 C                     0.7483    1.7175    0.0011 
 C                    -0.7483    1.7174   -0.0013 
 C                     1.5077   -1.9609   -0.0003 
 C                    -1.5077   -1.961     0.0012 
 C                     2.8699    0.4596   -0.0006 
 C                    -2.8698    0.4595   -0.0005 
 C                     2.9076   -1.9394   -0.0007 
 C                    -2.9074   -1.9396    0.0012 
 C                     3.5883   -0.7298   -0.001 
 C                    -3.5882   -0.7299    0.0002 
 H                     1.0401   -2.9414   -0.0002 
 H                    -1.04     -2.9415    0.002 
 H                     3.416     1.3992   -0.0007 
 H                    -3.416     1.3991   -0.0012 
 H                     3.4616   -2.874    -0.0008 
 H                    -3.4615   -2.8741    0.0018 
 H                     4.6738   -0.7131   -0.0013 
 H                    -4.6736   -0.7132    0.0002 
 

 GradGradGradGradGradGradGradGradGradGradGradGradGradGradGradGradGradGrad
 Berny optimization.
 Initialization pass.
                           ----------------------------
                           !    Initial Parameters    !
                           ! (Angstroms and Degrees)  !
 --------------------------                            --------------------------
 ! Name  Definition              Value          Derivative Info.                !
 --------------------------------------------------------------------------------
 ! R1    R(1,7)                  1.2214         estimate D2E/DX2                !
 ! R2    R(2,8)                  1.2215         estimate D2E/DX2                !
 ! R3    R(3,4)                  1.486          estimate D2E/DX2                !
 ! R4    R(3,5)                  1.4084         estimate D2E/DX2                !
 ! R5    R(3,9)                  1.4096         estimate D2E/DX2                !
 ! R6    R(4,6)                  1.4084         estimate D2E/DX2                !
 ! R7    R(4,10)                 1.4097         estimate D2E/DX2                !
 ! R8    R(5,7)                  1.4727         estimate D2E/DX2                !
 ! R9    R(5,11)                 1.4038         estimate D2E/DX2                !
 ! R10   R(6,8)                  1.4727         estimate D2E/DX2                !
 ! R11   R(6,12)                 1.4036         estimate D2E/DX2                !
 ! R12   R(7,8)                  1.4966         estimate D2E/DX2                !
 ! R13   R(9,13)                 1.4001         estimate D2E/DX2                !
 ! R14   R(9,17)                 1.0863         estimate D2E/DX2                !
 ! R15   R(10,14)                1.3999         estimate D2E/DX2                !
 ! R16   R(10,18)                1.0863         estimate D2E/DX2                !
 ! R17   R(11,15)                1.3895         estimate D2E/DX2                !
 ! R18   R(11,19)                1.0868         estimate D2E/DX2                !
 ! R19   R(12,16)                1.3895         estimate D2E/DX2                !
 ! R20   R(12,20)                1.0868         estimate D2E/DX2                !
 ! R21   R(13,15)                1.388          estimate D2E/DX2                !
 ! R22   R(13,21)                1.0865         estimate D2E/DX2                !
 ! R23   R(14,16)                1.3881         estimate D2E/DX2                !
 ! R24   R(14,22)                1.0864         estimate D2E/DX2                !
 ! R25   R(15,23)                1.0856         estimate D2E/DX2                !
 ! R26   R(16,24)                1.0855         estimate D2E/DX2                !
 ! A1    A(4,3,5)              120.9065         estimate D2E/DX2                !
 ! A2    A(4,3,9)              122.8524         estimate D2E/DX2                !
 ! A3    A(5,3,9)              116.241          estimate D2E/DX2                !
 ! A4    A(3,4,6)              120.91           estimate D2E/DX2                !
 ! A5    A(3,4,10)             122.8503         estimate D2E/DX2                !
 ! A6    A(6,4,10)             116.2397         estimate D2E/DX2                !
 ! A7    A(3,5,7)              119.9107         estimate D2E/DX2                !
 ! A8    A(3,5,11)             122.0454         estimate D2E/DX2                !
 ! A9    A(7,5,11)             118.0439         estimate D2E/DX2                !
 ! A10   A(4,6,8)              119.902          estimate D2E/DX2                !
 ! A11   A(4,6,12)             122.0449         estimate D2E/DX2                !
 ! A12   A(8,6,12)             118.0531         estimate D2E/DX2                !
 ! A13   A(1,7,5)              123.0522         estimate D2E/DX2                !
 ! A14   A(1,7,8)              117.7691         estimate D2E/DX2                !
 ! A15   A(5,7,8)              119.1787         estimate D2E/DX2                !
 ! A16   A(2,8,6)              123.0386         estimate D2E/DX2                !
 ! A17   A(2,8,7)              117.7697         estimate D2E/DX2                !
 ! A18   A(6,8,7)              119.1917         estimate D2E/DX2                !
 ! A19   A(3,9,13)             121.9726         estimate D2E/DX2                !
 ! A20   A(3,9,17)             121.6511         estimate D2E/DX2                !
 ! A21   A(13,9,17)            116.3763         estimate D2E/DX2                !
 ! A22   A(4,10,14)            121.9743         estimate D2E/DX2                !
 ! A23   A(4,10,18)            121.6486         estimate D2E/DX2                !
 ! A24   A(14,10,18)           116.3771         estimate D2E/DX2                !
 ! A25   A(5,11,15)            119.9932         estimate D2E/DX2                !
 ! A26   A(5,11,19)            121.3042         estimate D2E/DX2                !
 ! A27   A(15,11,19)           118.7026         estimate D2E/DX2                !
 ! A28   A(6,12,16)            119.9972         estimate D2E/DX2                !
 ! A29   A(6,12,20)            121.3048         estimate D2E/DX2                !
 ! A30   A(16,12,20)           118.698          estimate D2E/DX2                !
 ! A31   A(9,13,15)            120.2484         estimate D2E/DX2                !
 ! A32   A(9,13,21)            119.7782         estimate D2E/DX2                !
 ! A33   A(15,13,21)           119.9734         estimate D2E/DX2                !
 ! A34   A(10,14,16)           120.246          estimate D2E/DX2                !
 ! A35   A(10,14,22)           119.7894         estimate D2E/DX2                !
 ! A36   A(16,14,22)           119.9646         estimate D2E/DX2                !
 ! A37   A(11,15,13)           119.4994         estimate D2E/DX2                !
 ! A38   A(11,15,23)           120.2507         estimate D2E/DX2                !
 ! A39   A(13,15,23)           120.25           estimate D2E/DX2                !
 ! A40   A(12,16,14)           119.4978         estimate D2E/DX2                !
 ! A41   A(12,16,24)           120.2506         estimate D2E/DX2                !
 ! A42   A(14,16,24)           120.2516         estimate D2E/DX2                !
 ! D1    D(5,3,4,6)              0.0563         estimate D2E/DX2                !
 ! D2    D(5,3,4,10)          -179.9621         estimate D2E/DX2                !
 ! D3    D(9,3,4,6)           -179.9581         estimate D2E/DX2                !
 ! D4    D(9,3,4,10)             0.0235         estimate D2E/DX2                !
 ! D5    D(4,3,5,7)              0.0451         estimate D2E/DX2                !
 ! D6    D(4,3,5,11)           179.9919         estimate D2E/DX2                !
 ! D7    D(9,3,5,7)           -179.9414         estimate D2E/DX2                !
 ! D8    D(9,3,5,11)             0.0054         estimate D2E/DX2                !
 ! D9    D(4,3,9,13)          -179.9964         estimate D2E/DX2                !
 ! D10   D(4,3,9,17)             0.0116         estimate D2E/DX2                !
 ! D11   D(5,3,9,13)            -0.0102         estimate D2E/DX2                !
 ! D12   D(5,3,9,17)           179.9978         estimate D2E/DX2                !
 ! D13   D(3,4,6,8)             -0.0248         estimate D2E/DX2                !
 ! D14   D(3,4,6,12)           179.9784         estimate D2E/DX2                !
 ! D15   D(10,4,6,8)           179.9924         estimate D2E/DX2                !
 ! D16   D(10,4,6,12)           -0.0044         estimate D2E/DX2                !
 ! D17   D(3,4,10,14)         -179.9778         estimate D2E/DX2                !
 ! D18   D(3,4,10,18)            0.0263         estimate D2E/DX2                !
 ! D19   D(6,4,10,14)            0.0046         estimate D2E/DX2                !
 ! D20   D(6,4,10,18)         -179.9912         estimate D2E/DX2                !
 ! D21   D(3,5,7,1)            179.7923         estimate D2E/DX2                !
 ! D22   D(3,5,7,8)             -0.1717         estimate D2E/DX2                !
 ! D23   D(11,5,7,1)            -0.1565         estimate D2E/DX2                !
 ! D24   D(11,5,7,8)           179.8795         estimate D2E/DX2                !
 ! D25   D(3,5,11,15)            0.0091         estimate D2E/DX2                !
 ! D26   D(3,5,11,19)          179.9984         estimate D2E/DX2                !
 ! D27   D(7,5,11,15)          179.9568         estimate D2E/DX2                !
 ! D28   D(7,5,11,19)           -0.0539         estimate D2E/DX2                !
 ! D29   D(4,6,8,2)            179.9168         estimate D2E/DX2                !
 ! D30   D(4,6,8,7)             -0.103          estimate D2E/DX2                !
 ! D31   D(12,6,8,2)            -0.0863         estimate D2E/DX2                !
 ! D32   D(12,6,8,7)           179.8939         estimate D2E/DX2                !
 ! D33   D(4,6,12,16)           -0.0051         estimate D2E/DX2                !
 ! D34   D(4,6,12,20)         -179.9952         estimate D2E/DX2                !
 ! D35   D(8,6,12,16)          179.9981         estimate D2E/DX2                !
 ! D36   D(8,6,12,20)            0.0079         estimate D2E/DX2                !
 ! D37   D(1,7,8,2)              0.216          estimate D2E/DX2                !
 ! D38   D(1,7,8,6)           -179.7652         estimate D2E/DX2                !
 ! D39   D(5,7,8,2)           -179.8181         estimate D2E/DX2                !
 ! D40   D(5,7,8,6)              0.2007         estimate D2E/DX2                !
 ! D41   D(3,9,13,15)            0.0006         estimate D2E/DX2                !
 ! D42   D(3,9,13,21)         -179.9979         estimate D2E/DX2                !
 ! D43   D(17,9,13,15)         179.993          estimate D2E/DX2                !
 ! D44   D(17,9,13,21)          -0.0055         estimate D2E/DX2                !
 ! D45   D(4,10,14,16)           0.0047         estimate D2E/DX2                !
 ! D46   D(4,10,14,22)         179.9933         estimate D2E/DX2                !
 ! D47   D(18,10,14,16)       -179.9993         estimate D2E/DX2                !
 ! D48   D(18,10,14,22)         -0.0106         estimate D2E/DX2                !
 ! D49   D(5,11,15,13)          -0.0189         estimate D2E/DX2                !
 ! D50   D(5,11,15,23)         179.9959         estimate D2E/DX2                !
 ! D51   D(19,11,15,13)        179.9915         estimate D2E/DX2                !
 ! D52   D(19,11,15,23)          0.0063         estimate D2E/DX2                !
 ! D53   D(6,12,16,14)           0.0144         estimate D2E/DX2                !
 ! D54   D(6,12,16,24)        -179.9998         estimate D2E/DX2                !
 ! D55   D(20,12,16,14)       -179.9952         estimate D2E/DX2                !
 ! D56   D(20,12,16,24)         -0.0094         estimate D2E/DX2                !
 ! D57   D(9,13,15,11)           0.0142         estimate D2E/DX2                !
 ! D58   D(9,13,15,23)         179.9994         estimate D2E/DX2                !
 ! D59   D(21,13,15,11)       -179.9873         estimate D2E/DX2                !
 ! D60   D(21,13,15,23)         -0.0021         estimate D2E/DX2                !
 ! D61   D(10,14,16,12)         -0.0143         estimate D2E/DX2                !
 ! D62   D(10,14,16,24)       -180.0            estimate D2E/DX2                !
 ! D63   D(22,14,16,12)        179.9971         estimate D2E/DX2                !
 ! D64   D(22,14,16,24)          0.0113         estimate D2E/DX2                !
 --------------------------------------------------------------------------------
 Trust Radius=3.00D-01 FncErr=1.00D-07 GrdErr=1.00D-06 EigMax=2.50D+02 EigMin=1.00D-04
 Number of steps in this run=    142 maximum allowed number of steps=    144.
 GradGradGradGradGradGradGradGradGradGradGradGradGradGradGradGradGradGrad

                          Input orientation:                          
 ---------------------------------------------------------------------
 Center     Atomic      Atomic             Coordinates (Angstroms)
 Number     Number       Type             X           Y           Z
 ---------------------------------------------------------------------
      1          8           0        1.317300    2.798300    0.004800
      2          8           0       -1.317500    2.798200   -0.003500
      3          6           0        0.743000   -0.776700   -0.000200
      4          6           0       -0.743000   -0.776700    0.000300
      5          6           0        1.466400    0.431700   -0.000300
      6          6           0       -1.466500    0.431700   -0.000500
      7          6           0        0.748300    1.717500    0.001100
      8          6           0       -0.748300    1.717400   -0.001300
      9          6           0        1.507700   -1.960900   -0.000300
     10          6           0       -1.507700   -1.961000    0.001200
     11          6           0        2.869900    0.459600   -0.000600
     12          6           0       -2.869800    0.459500   -0.000500
     13          6           0        2.907600   -1.939400   -0.000700
     14          6           0       -2.907400   -1.939600    0.001200
     15          6           0        3.588300   -0.729800   -0.001000
     16          6           0       -3.588200   -0.729900    0.000200
     17          1           0        1.040100   -2.941400   -0.000200
     18          1           0       -1.040000   -2.941500    0.002000
     19          1           0        3.416000    1.399200   -0.000700
     20          1           0       -3.416000    1.399100   -0.001200
     21          1           0        3.461600   -2.874000   -0.000800
     22          1           0       -3.461500   -2.874100    0.001800
     23          1           0        4.673800   -0.713100   -0.001300
     24          1           0       -4.673600   -0.713200    0.000200
 ---------------------------------------------------------------------
                    Distance matrix (angstroms):
                    1          2          3          4          5
     1  O    0.000000
     2  O    2.634813   0.000000
     3  C    3.620838   4.126207   0.000000
     4  C    4.126195   3.620770   1.486000   0.000000
     5  C    2.371298   3.653824   1.408381   2.518269   0.000000
     6  C    3.653815   2.371188   2.518357   1.408433   2.932900
     7  C    1.221435   2.331408   2.494206   2.906030   1.472736
     8  C    2.331327   1.221525   2.905944   2.494106   2.560844
     9  C    4.763010   5.534510   1.409644   2.543222   2.392956
    10  C    5.534580   4.763001   2.543269   1.409728   3.817104
    11  C    2.807154   4.796184   2.460110   3.818571   1.403777
    12  C    4.796021   2.806984   3.818444   2.459973   4.336289
    13  C    4.997488   6.347939   2.457105   3.831286   2.774738
    14  C    6.347897   4.997455   3.831156   2.457024   4.975258
    15  C    4.195827   6.042654   2.845687   4.331554   2.418996
    16  C    6.042528   4.195662   4.331453   2.845585   5.186357
    17  H    5.746392   6.204941   2.184993   2.804527   3.399932
    18  H    6.205012   5.746407   2.804541   2.185079   4.202443
    19  H    2.522311   4.935912   3.446661   4.693807   2.176464
    20  H    4.935780   2.522140   4.693761   3.446598   4.977318
    21  H    6.064078   7.417119   3.433577   4.698652   3.861150
    22  H    7.417079   6.063972   4.698607   3.433560   5.934014
    23  H    4.857578   6.944416   3.931315   5.417174   3.405581
    24  H    6.944173   4.857299   5.416972   3.931113   6.245830
                    6          7          8          9         10
     6  C    0.000000
     7  C    2.560981   0.000000
     8  C    1.472697   1.496602   0.000000
     9  C    3.817119   3.755971   4.315024   0.000000
    10  C    2.393055   4.315194   3.755971   3.015400   0.000000
    11  C    4.336490   2.466476   3.830592   2.777483   5.002268
    12  C    1.403575   3.830563   2.466389   5.002084   2.777434
    13  C    4.975426   4.246822   5.170860   1.400065   4.415353
    14  C    2.774754   5.170931   4.246807   4.415152   1.399864
    15  C    5.186529   3.748984   4.979447   2.417541   5.242621
    16  C    2.418869   4.979458   3.748908   5.242476   2.417455
    17  H    4.202481   4.668029   4.990270   1.086292   2.729921
    18  H    3.400057   4.990421   4.668024   2.729901   1.086335
    19  H    4.977435   2.686623   4.176439   3.864179   5.961021
    20  H    2.176330   4.176455   2.686622   5.960908   3.864180
    21  H    5.934124   5.333280   6.229303   2.156728   5.052476
    22  H    3.861132   6.229383   5.333229   5.052414   2.156638
    23  H    6.246107   4.617074   5.941927   3.403115   6.306204
    24  H    3.405332   5.941827   4.616904   6.305967   3.402929
                   11         12         13         14         15
    11  C    0.000000
    12  C    5.739700   0.000000
    13  C    2.399296   6.255643   0.000000
    14  C    6.255666   2.399395   5.815000   0.000000
    15  C    1.389522   6.566696   1.387979   6.607400   0.000000
    16  C    6.566732   1.389522   6.607443   1.388115   7.176500
    17  H    3.861990   5.182030   2.119330   4.072636   3.374092
    18  H    5.182162   3.861991   4.072807   2.119195   5.129599
    19  H    1.086772   6.355652   3.377088   7.150733   2.135961
    20  H    6.355722   1.086822   7.150769   3.377217   7.320685
    21  H    3.385705   7.155337   1.086459   6.437179   2.147940
    22  H    7.155431   3.385706   6.437321   1.086424   7.368698
    23  H    2.151576   7.634192   2.150180   7.679772   1.085628
    24  H    7.634124   2.151493   7.679724   2.150237   8.261917
                   16         17         18         19         20
    16  C    0.000000
    17  H    5.129512   0.000000
    18  H    3.374093   2.080101   0.000000
    19  H    7.320648   4.948304   6.220741   0.000000
    20  H    2.135953   6.220673   4.948353   6.832000   0.000000
    21  H    7.368639   2.422438   4.502107   4.273443   8.096960
    22  H    2.147941   4.502103   2.422438   8.096981   4.273443
    23  H    8.262017   4.262522   6.132967   2.458429   8.360996
    24  H    1.085528   6.132801   4.262437   8.360853   2.458327
                   21         22         23         24
    21  H    0.000000
    22  H    6.923100   0.000000
    23  H    2.477684   8.417425   0.000000
    24  H    8.417276   2.477636   9.347400   0.000000
 Stoichiometry    C14H8O2
 Framework group  C1[X(C14H8O2)]
 Deg. of freedom    66
 Full point group                 C1      NOp   1
 Largest Abelian subgroup         C1      NOp   1
 Largest concise Abelian subgroup C1      NOp   1
                         Standard orientation:                         
 ---------------------------------------------------------------------
 Center     Atomic      Atomic             Coordinates (Angstroms)
 Number     Number       Type             X           Y           Z
 ---------------------------------------------------------------------
      1          8           0        1.317331    2.789640    0.004783
      2          8           0       -1.317469    2.789575   -0.003517
      3          6           0        0.742984   -0.785352   -0.000217
      4          6           0       -0.743016   -0.785333    0.000283
      5          6           0        1.466400    0.423038   -0.000317
      6          6           0       -1.466500    0.423077   -0.000517
      7          6           0        0.748317    1.708848    0.001083
      8          6           0       -0.748283    1.708767   -0.001317
      9          6           0        1.507668   -1.969562   -0.000317
     10          6           0       -1.507732   -1.969623    0.001183
     11          6           0        2.869900    0.450920   -0.000617
     12          6           0       -2.869800    0.450895   -0.000517
     13          6           0        2.907569   -1.948081   -0.000717
     14          6           0       -2.907431   -1.948204    0.001183
     15          6           0        3.588285   -0.738490   -0.001017
     16          6           0       -3.588215   -0.738495    0.000183
     17          1           0        1.040056   -2.950056   -0.000217
     18          1           0       -1.040044   -2.950129    0.001983
     19          1           0        3.416013    1.390512   -0.000717
     20          1           0       -3.415987    1.390502   -0.001217
     21          1           0        3.461556   -2.882688   -0.000817
     22          1           0       -3.461544   -2.882697    0.001783
     23          1           0        4.673785   -0.721804   -0.001317
     24          1           0       -4.673615   -0.721781    0.000183
 ---------------------------------------------------------------------
 Rotational constants (GHZ):           0.8728232           0.5095466           0.3217261
 Standard basis: 6-311++G(d,p) (5D, 7F)
 There are   424 symmetry adapted cartesian basis functions of A   symmetry.
 There are   408 symmetry adapted basis functions of A   symmetry.
   408 basis functions,   648 primitive gaussians,   424 cartesian basis functions
    54 alpha electrons       54 beta electrons
       nuclear repulsion energy       977.6979675448 Hartrees.
 NAtoms=   24 NActive=   24 NUniq=   24 SFac= 1.00D+00 NAtFMM=   60 NAOKFM=F Big=F
 Integral buffers will be    131072 words long.
 Raffenetti 2 integral format.
 Two-electron integral symmetry is turned on.
 R6APFD:  NTU= -4 IXU= 1 FactS= 1.050
 Nuclear repulsion after empirical dispersion term =      977.6801124215 Hartrees.
 One-electron integrals computed using PRISM.
 NBasis=   408 RedAO= T EigKep=  1.36D-06  NBF=   408
 NBsUse=   401 1.00D-06 EigRej=  9.77D-07 NBFU=   401
 ExpMin= 3.60D-02 ExpMax= 8.59D+03 ExpMxC= 1.30D+03 IAcc=3 IRadAn=         5 AccDes= 0.00D+00
 Harris functional with IExCor= 1009 and IRadAn=       5 diagonalized for initial guess.
 HarFok:  IExCor= 1009 AccDes= 0.00D+00 IRadAn=         5 IDoV= 1 UseB2=F ITyADJ=14
 ICtDFT=  3500011 ScaDFX=  1.000000  1.000000  1.000000  1.000000
 FoFCou: FMM=F IPFlag=           0 FMFlag=      100000 FMFlg1=           0
         NFxFlg=           0 DoJE=T BraDBF=F KetDBF=T FulRan=T
         wScrn=  0.000000 ICntrl=       500 IOpCl=  0 I1Cent=   200000004 NGrid=           0
         NMat0=    1 NMatS0=      1 NMatT0=    0 NMatD0=    1 NMtDS0=    0 NMtDT0=    0
 Petite list used in FoFCou.
 Requested convergence on RMS density matrix=1.00D-08 within  32 cycles.
 Requested convergence on MAX density matrix=1.00D-06.
 Requested convergence on             energy=1.00D-06.
 No special actions if energy rises.
 EnCoef did     3 forward-backward iterations
 SCF Done:  E(RM08HX) =  -688.733931588     A.U. after   15 cycles
            NFock= 15  Conv=0.82D-08     -V/T= 2.0047
 QCSCF skips out because SCF is already converged.

 **********************************************************************

            Population analysis using the SCF Density.

 **********************************************************************

 Orbital symmetries:
       Occupied  (A) (A) (A) (A) (A) (A) (A) (A) (A) (A) (A) (A)
                 (A) (A) (A) (A) (A) (A) (A) (A) (A) (A) (A) (A)
                 (A) (A) (A) (A) (A) (A) (A) (A) (A) (A) (A) (A)
                 (A) (A) (A) (A) (A) (A) (A) (A) (A) (A) (A) (A)
                 (A) (A) (A) (A) (A) (A)
       Virtual   (A) (A) (A) (A) (A) (A) (A) (A) (A) (A) (A) (A)
                 (A) (A) (A) (A) (A) (A) (A) (A) (A) (A) (A) (A)
                 (A) (A) (A) (A) (A) (A) (A) (A) (A) (A) (A) (A)
                 (A) (A) (A) (A) (A) (A) (A) (A) (A) (A) (A) (A)
                 (A) (A) (A) (A) (A) (A) (A) (A) (A) (A) (A) (A)
                 (A) (A) (A) (A) (A) (A) (A) (A) (A) (A) (A) (A)
                 (A) (A) (A) (A) (A) (A) (A) (A) (A) (A) (A) (A)
                 (A) (A) (A) (A) (A) (A) (A) (A) (A) (A) (A) (A)
                 (A) (A) (A) (A) (A) (A) (A) (A) (A) (A) (A) (A)
                 (A) (A) (A) (A) (A) (A) (A) (A) (A) (A) (A) (A)
                 (A) (A) (A) (A) (A) (A) (A) (A) (A) (A) (A) (A)
                 (A) (A) (A) (A) (A) (A) (A) (A) (A) (A) (A) (A)
                 (A) (A) (A) (A) (A) (A) (A) (A) (A) (A) (A) (A)
                 (A) (A) (A) (A) (A) (A) (A) (A) (A) (A) (A) (A)
                 (A) (A) (A) (A) (A) (A) (A) (A) (A) (A) (A) (A)
                 (A) (A) (A) (A) (A) (A) (A) (A) (A) (A) (A) (A)
                 (A) (A) (A) (A) (A) (A) (A) (A) (A) (A) (A) (A)
                 (A) (A) (A) (A) (A) (A) (A) (A) (A) (A) (A) (A)
                 (A) (A) (A) (A) (A) (A) (A) (A) (A) (A) (A) (A)
                 (A) (A) (A) (A) (A) (A) (A) (A) (A) (A) (A) (A)
                 (A) (A) (A) (A) (A) (A) (A) (A) (A) (A) (A) (A)
                 (A) (A) (A) (A) (A) (A) (A) (A) (A) (A) (A) (A)
                 (A) (A) (A) (A) (A) (A) (A) (A) (A) (A) (A) (A)
                 (A) (A) (A) (A) (A) (A) (A) (A) (A) (A) (A) (A)
                 (A) (A) (A) (A) (A) (A) (A) (A) (A) (A) (A) (A)
                 (A) (A) (A) (A) (A) (A) (A) (A) (A) (A) (A) (A)
                 (A) (A) (A) (A) (A) (A) (A) (A) (A) (A) (A) (A)
                 (A) (A) (A) (A) (A) (A) (A) (A) (A) (A) (A) (A)
                 (A) (A) (A) (A) (A) (A) (A) (A) (A) (A) (A)
 The electronic state is 1-A.
 Alpha  occ. eigenvalues --  -19.62171 -19.62169 -10.63639 -10.63594 -10.58807
 Alpha  occ. eigenvalues --  -10.58759 -10.57067 -10.57065 -10.56709 -10.56707
 Alpha  occ. eigenvalues --  -10.56622 -10.56620 -10.56382 -10.56380 -10.55920
 Alpha  occ. eigenvalues --  -10.55919  -1.20113  -1.16418  -1.02041  -0.99025
 Alpha  occ. eigenvalues --   -0.92583  -0.89738  -0.88106  -0.85618  -0.81241
 Alpha  occ. eigenvalues --   -0.75071  -0.72845  -0.71164  -0.69635  -0.64853
 Alpha  occ. eigenvalues --   -0.62749  -0.59314  -0.57628  -0.57601  -0.54136
 Alpha  occ. eigenvalues --   -0.53574  -0.53431  -0.52934  -0.52528  -0.52118
 Alpha  occ. eigenvalues --   -0.51305  -0.47546  -0.47433  -0.45893  -0.45523
 Alpha  occ. eigenvalues --   -0.43429  -0.43247  -0.42766  -0.37897  -0.37657
 Alpha  occ. eigenvalues --   -0.33874  -0.33388  -0.33247  -0.30668
 Alpha virt. eigenvalues --   -0.09981  -0.04587  -0.03569  -0.02559  -0.02536
 Alpha virt. eigenvalues --   -0.01539  -0.00342  -0.00222   0.00943   0.01885
 Alpha virt. eigenvalues --    0.01932   0.02130   0.02283   0.02945   0.03217
 Alpha virt. eigenvalues --    0.04014   0.04964   0.05203   0.05381   0.06291
 Alpha virt. eigenvalues --    0.06337   0.07478   0.08929   0.09018   0.09624
 Alpha virt. eigenvalues --    0.09750   0.10027   0.10215   0.10219   0.11084
 Alpha virt. eigenvalues --    0.11112   0.11255   0.11842   0.11889   0.11982
 Alpha virt. eigenvalues --    0.12305   0.13283   0.13563   0.13698   0.14311
 Alpha virt. eigenvalues --    0.14336   0.15481   0.15555   0.15787   0.16900
 Alpha virt. eigenvalues --    0.17604   0.17856   0.18029   0.18196   0.19110
 Alpha virt. eigenvalues --    0.19150   0.20405   0.21068   0.21478   0.21667
 Alpha virt. eigenvalues --    0.21712   0.22081   0.23273   0.23821   0.24304
 Alpha virt. eigenvalues --    0.24759   0.25396   0.25846   0.25958   0.27109
 Alpha virt. eigenvalues --    0.27519   0.27907   0.28294   0.28880   0.29015
 Alpha virt. eigenvalues --    0.29153   0.30084   0.30114   0.31223   0.31448
 Alpha virt. eigenvalues --    0.32665   0.33074   0.33700   0.33887   0.34383
 Alpha virt. eigenvalues --    0.34953   0.35107   0.35646   0.36837   0.37373
 Alpha virt. eigenvalues --    0.38850   0.39709   0.41958   0.43296   0.43401
 Alpha virt. eigenvalues --    0.45951   0.46328   0.48832   0.50033   0.51545
 Alpha virt. eigenvalues --    0.54236   0.54792   0.55157   0.55456   0.55987
 Alpha virt. eigenvalues --    0.56657   0.56983   0.57230   0.57255   0.58183
 Alpha virt. eigenvalues --    0.59450   0.59613   0.61539   0.62397   0.62688
 Alpha virt. eigenvalues --    0.62981   0.63109   0.63158   0.65793   0.65959
 Alpha virt. eigenvalues --    0.66402   0.67983   0.68198   0.68803   0.68985
 Alpha virt. eigenvalues --    0.69421   0.71075   0.72372   0.72682   0.74592
 Alpha virt. eigenvalues --    0.75736   0.75893   0.76845   0.78097   0.80359
 Alpha virt. eigenvalues --    0.80377   0.80800   0.82147   0.82280   0.83774
 Alpha virt. eigenvalues --    0.86000   0.86050   0.86744   0.87495   0.88133
 Alpha virt. eigenvalues --    0.89008   0.90992   0.91244   0.92515   0.92847
 Alpha virt. eigenvalues --    0.93032   0.95240   0.95987   0.96597   0.97399
 Alpha virt. eigenvalues --    0.98019   0.99511   1.00165   1.00994   1.03341
 Alpha virt. eigenvalues --    1.04717   1.05580   1.06326   1.06884   1.07503
 Alpha virt. eigenvalues --    1.09377   1.11693   1.12732   1.13407   1.14500
 Alpha virt. eigenvalues --    1.14746   1.14851   1.15493   1.16976   1.17502
 Alpha virt. eigenvalues --    1.21079   1.21187   1.26874   1.27629   1.27873
 Alpha virt. eigenvalues --    1.29159   1.31925   1.32080   1.37331   1.40548
 Alpha virt. eigenvalues --    1.41120   1.41324   1.46614   1.47029   1.49783
 Alpha virt. eigenvalues --    1.50914   1.51502   1.52582   1.52659   1.56216
 Alpha virt. eigenvalues --    1.56633   1.56992   1.58396   1.59562   1.59739
 Alpha virt. eigenvalues --    1.62854   1.63846   1.66812   1.67306   1.68562
 Alpha virt. eigenvalues --    1.69419   1.73039   1.73586   1.74090   1.74226
 Alpha virt. eigenvalues --    1.75085   1.75974   1.76074   1.77409   1.77468
 Alpha virt. eigenvalues --    1.84088   1.84793   1.85494   1.86897   1.88238
 Alpha virt. eigenvalues --    1.88464   1.89308   1.91081   1.93256   1.93716
 Alpha virt. eigenvalues --    1.94619   1.97451   1.97930   1.98049   1.98652
 Alpha virt. eigenvalues --    1.99517   2.00973   2.01400   2.01838   2.04218
 Alpha virt. eigenvalues --    2.05564   2.07111   2.10557   2.12884   2.14265
 Alpha virt. eigenvalues --    2.15160   2.19486   2.23100   2.24055   2.27638
 Alpha virt. eigenvalues --    2.29282   2.32471   2.33756   2.39578   2.40689
 Alpha virt. eigenvalues --    2.41738   2.43598   2.45973   2.46167   2.48868
 Alpha virt. eigenvalues --    2.50352   2.52540   2.60759   2.62106   2.66944
 Alpha virt. eigenvalues --    2.67272   2.67315   2.68030   2.68283   2.69471
 Alpha virt. eigenvalues --    2.70166   2.72451   2.72484   2.72668   2.73962
 Alpha virt. eigenvalues --    2.73998   2.76014   2.78459   2.81589   2.83285
 Alpha virt. eigenvalues --    2.83678   2.84160   2.84496   2.87507   2.88382
 Alpha virt. eigenvalues --    2.90192   2.92635   2.94418   2.94853   2.97481
 Alpha virt. eigenvalues --    2.97588   2.99921   3.00356   3.02457   3.04050
 Alpha virt. eigenvalues --    3.08708   3.13968   3.14901   3.17434   3.21983
 Alpha virt. eigenvalues --    3.23328   3.27661   3.31131   3.32142   3.33824
 Alpha virt. eigenvalues --    3.37635   3.40922   3.43688   3.44697   3.46837
 Alpha virt. eigenvalues --    3.47848   3.52691   3.54103   3.56729   3.57585
 Alpha virt. eigenvalues --    3.58631   3.62338   3.66352   3.67254   3.76089
 Alpha virt. eigenvalues --    3.84139   3.87197   3.88808   4.05466   4.07185
 Alpha virt. eigenvalues --    4.09334   4.11423   4.19395   4.26519   4.32124
 Alpha virt. eigenvalues --    4.33339   4.53798   4.86923   4.87382   4.91500
 Alpha virt. eigenvalues --    5.11306   5.19558   5.29054   5.47153   5.77915
 Alpha virt. eigenvalues --    5.94592  23.55562  23.73765  23.94173  23.94955
 Alpha virt. eigenvalues --   23.96355  23.98688  23.98874  24.01059  24.08918
 Alpha virt. eigenvalues --   24.09894  24.10769  24.11496  24.21491  24.21863
 Alpha virt. eigenvalues --   49.99382  50.10255
          Condensed to atoms (all electrons):
               1          2          3          4          5          6
     1  O    7.892889   0.033147  -0.002975  -0.121244  -0.179166   0.012877
     2  O    0.033147   7.892799  -0.121239  -0.003013   0.012890  -0.179563
     3  C   -0.002975  -0.121239  14.493422   4.094013   5.492462   0.459086
     4  C   -0.121244  -0.003013   4.094013  14.493804   0.457097   5.496372
     5  C   -0.179166   0.012890   5.492462   0.457097  20.094773  -0.524397
     6  C    0.012877  -0.179563   0.459086   5.496372  -0.524397  20.106518
     7  C    0.623658  -0.421159  -2.179400  -1.721119  -3.227314  -7.922021
     8  C   -0.421256   0.623933  -1.721892  -2.181211  -7.912513  -3.228085
     9  C    0.022829  -0.006320  -4.081565  -4.010379  -0.285043  -2.346730
    10  C   -0.006311   0.022816  -4.012684  -4.083701  -2.348884  -0.287474
    11  C    0.213596  -0.015944  -4.951850  -3.574385  -4.133166  -1.704138
    12  C   -0.015960   0.213650  -3.574804  -4.952579  -1.706101  -4.140000
    13  C   -0.005103  -0.006505  -1.299583   0.463772  -0.140328  -0.433454
    14  C   -0.006499  -0.005109   0.464688  -1.297701  -0.432008  -0.140099
    15  C    0.094310   0.005212   1.987582   0.103075  -0.769999   0.816115
    16  C    0.005205   0.094406   0.102217   1.985001   0.815748  -0.771028
    17  H   -0.000182   0.000295  -0.035187  -0.123482   0.083151  -0.079526
    18  H    0.000294  -0.000183  -0.123517  -0.035258  -0.079658   0.083043
    19  H   -0.014723  -0.000754  -0.032550  -0.001900   0.035462  -0.028979
    20  H   -0.000754  -0.014718  -0.001893  -0.032550  -0.028978   0.035403
    21  H   -0.000080  -0.000139   0.033606   0.043499   0.025741  -0.008653
    22  H   -0.000139  -0.000080   0.043525   0.033634  -0.008631   0.025769
    23  H    0.002301   0.000195   0.024304  -0.020251  -0.042637   0.010376
    24  H    0.000195   0.002302  -0.020256   0.024326   0.010373  -0.042640
               7          8          9         10         11         12
     1  O    0.623658  -0.421256   0.022829  -0.006311   0.213596  -0.015960
     2  O   -0.421159   0.623933  -0.006320   0.022816  -0.015944   0.213650
     3  C   -2.179400  -1.721892  -4.081565  -4.012684  -4.951850  -3.574804
     4  C   -1.721119  -2.181211  -4.010379  -4.083701  -3.574385  -4.952579
     5  C   -3.227314  -7.912513  -0.285043  -2.348884  -4.133166  -1.706101
     6  C   -7.922021  -3.228085  -2.346730  -0.287474  -1.704138  -4.140000
     7  C   22.439646  -2.564884  -0.242024   1.441094  -1.364560   3.226480
     8  C   -2.564884  22.436496   1.440198  -0.241125   3.222911  -1.363020
     9  C   -0.242024   1.440198  13.156323  -0.161809   5.794860  -0.527650
    10  C    1.441094  -0.241125  -0.161809  13.162246  -0.527573   5.797569
    11  C   -1.364560   3.222911   5.794860  -0.527573  15.883435  -0.652533
    12  C    3.226480  -1.363020  -0.527650   5.797569  -0.652533  15.885890
    13  C   -0.052279   0.010882  -0.233349   0.225488  -0.945411   0.032989
    14  C    0.009824  -0.053635   0.225993  -0.235551   0.033203  -0.946460
    15  C   -0.802356  -0.404857  -2.316071  -0.219664  -1.490807   0.031538
    16  C   -0.403862  -0.801688  -0.219988  -2.315091   0.031390  -1.489906
    17  H   -0.024817   0.027359   0.627529  -0.086003   0.196793  -0.073188
    18  H    0.027400  -0.024777  -0.085953   0.627747  -0.073184   0.196825
    19  H    0.033986   0.022671   0.063703  -0.005459   0.420366  -0.005572
    20  H    0.022695   0.034011  -0.005458   0.063713  -0.005576   0.420382
    21  H   -0.012931  -0.001429  -0.079881   0.008428  -0.062375   0.000199
    22  H   -0.001443  -0.012953   0.008443  -0.079987   0.000200  -0.062390
    23  H   -0.002574  -0.000233  -0.020069  -0.009635  -0.010900  -0.000976
    24  H   -0.000233  -0.002565  -0.009638  -0.020078  -0.000975  -0.010978
              13         14         15         16         17         18
     1  O   -0.005103  -0.006499   0.094310   0.005205  -0.000182   0.000294
     2  O   -0.006505  -0.005109   0.005212   0.094406   0.000295  -0.000183
     3  C   -1.299583   0.464688   1.987582   0.102217  -0.035187  -0.123517
     4  C    0.463772  -1.297701   0.103075   1.985001  -0.123482  -0.035258
     5  C   -0.140328  -0.432008  -0.769999   0.815748   0.083151  -0.079658
     6  C   -0.433454  -0.140099   0.816115  -0.771028  -0.079526   0.083043
     7  C   -0.052279   0.009824  -0.802356  -0.403862  -0.024817   0.027400
     8  C    0.010882  -0.053635  -0.404857  -0.801688   0.027359  -0.024777
     9  C   -0.233349   0.225993  -2.316071  -0.219988   0.627529  -0.085953
    10  C    0.225488  -0.235551  -0.219664  -2.315091  -0.086003   0.627747
    11  C   -0.945411   0.033203  -1.490807   0.031390   0.196793  -0.073184
    12  C    0.032989  -0.946460   0.031538  -1.489906  -0.073188   0.196825
    13  C    9.187248   0.118799  -0.470635  -0.189071  -0.118867  -0.019082
    14  C    0.118799   9.185376  -0.189108  -0.468421  -0.019038  -0.118901
    15  C   -0.470635  -0.189108   9.692750   0.053205  -0.007230   0.008225
    16  C   -0.189071  -0.468421   0.053205   9.692162   0.008210  -0.007232
    17  H   -0.118867  -0.019038  -0.007230   0.008210   0.498142  -0.012177
    18  H   -0.019082  -0.118901   0.008225  -0.007232  -0.012177   0.498145
    19  H    0.010754   0.001640  -0.183517  -0.002159   0.003121  -0.000875
    20  H    0.001641   0.010731  -0.002159  -0.183528  -0.000875   0.003121
    21  H    0.445240   0.006202  -0.098625  -0.003601  -0.018513   0.003138
    22  H    0.006207   0.445274  -0.003602  -0.098637   0.003139  -0.018512
    23  H   -0.098985  -0.003110   0.481808   0.001073   0.002990  -0.000354
    24  H   -0.003112  -0.098940   0.001073   0.481867  -0.000354   0.002988
              19         20         21         22         23         24
     1  O   -0.014723  -0.000754  -0.000080  -0.000139   0.002301   0.000195
     2  O   -0.000754  -0.014718  -0.000139  -0.000080   0.000195   0.002302
     3  C   -0.032550  -0.001893   0.033606   0.043525   0.024304  -0.020256
     4  C   -0.001900  -0.032550   0.043499   0.033634  -0.020251   0.024326
     5  C    0.035462  -0.028978   0.025741  -0.008631  -0.042637   0.010373
     6  C   -0.028979   0.035403  -0.008653   0.025769   0.010376  -0.042640
     7  C    0.033986   0.022695  -0.012931  -0.001443  -0.002574  -0.000233
     8  C    0.022671   0.034011  -0.001429  -0.012953  -0.000233  -0.002565
     9  C    0.063703  -0.005458  -0.079881   0.008443  -0.020069  -0.009638
    10  C   -0.005459   0.063713   0.008428  -0.079987  -0.009635  -0.020078
    11  C    0.420366  -0.005576  -0.062375   0.000200  -0.010900  -0.000975
    12  C   -0.005572   0.420382   0.000199  -0.062390  -0.000976  -0.010978
    13  C    0.010754   0.001641   0.445240   0.006207  -0.098985  -0.003112
    14  C    0.001640   0.010731   0.006202   0.445274  -0.003110  -0.098940
    15  C   -0.183517  -0.002159  -0.098625  -0.003602   0.481808   0.001073
    16  C   -0.002159  -0.183528  -0.003601  -0.098637   0.001073   0.481867
    17  H    0.003121  -0.000875  -0.018513   0.003139   0.002990  -0.000354
    18  H   -0.000875   0.003121   0.003138  -0.018512  -0.000354   0.002988
    19  H    0.393679   0.000177   0.001114   0.000088  -0.008203  -0.000026
    20  H    0.000177   0.393680   0.000088   0.001114  -0.000026  -0.008205
    21  H    0.001114   0.000088   0.419769   0.000162  -0.012414  -0.000034
    22  H    0.000088   0.001114   0.000162   0.419786  -0.000034  -0.012414
    23  H   -0.008203  -0.000026  -0.012414  -0.000034   0.417148   0.000009
    24  H   -0.000026  -0.008205  -0.000034  -0.012414   0.000009   0.417144
 Mulliken charges:
               1
     1  O   -0.126911
     2  O   -0.126920
     3  C    0.964487
     4  C    0.964181
     5  C    0.791126
     6  C    0.791227
     7  C   -0.881806
     8  C   -0.882338
     9  C   -0.707950
    10  C   -0.708072
    11  C   -0.283377
    12  C   -0.283407
    13  C   -0.487258
    14  C   -0.487147
    15  C   -0.316265
    16  C   -0.316271
    17  H    0.148710
    18  H    0.148734
    19  H    0.297957
    20  H    0.297964
    21  H    0.311490
    22  H    0.311480
    23  H    0.290198
    24  H    0.290170
 Sum of Mulliken charges =  -0.00000
 Mulliken charges with hydrogens summed into heavy atoms:
               1
     1  O   -0.126911
     2  O   -0.126920
     3  C    0.964487
     4  C    0.964181
     5  C    0.791126
     6  C    0.791227
     7  C   -0.881806
     8  C   -0.882338
     9  C   -0.559240
    10  C   -0.559338
    11  C    0.014580
    12  C    0.014557
    13  C   -0.175767
    14  C   -0.175667
    15  C   -0.026067
    16  C   -0.026101
 Electronic spatial extent (au):  <R**2>=           3240.4385
 Charge=             -0.0000 electrons
 Dipole moment (field-independent basis, Debye):
    X=              0.0007    Y=             -6.4063    Z=             -0.0021  Tot=              6.4063
 Quadrupole moment (field-independent basis, Debye-Ang):
   XX=            -74.0837   YY=           -100.0917   ZZ=            -95.6219
   XY=              0.0013   XZ=             -0.0227   YZ=             -0.0128
 Traceless Quadrupole moment (field-independent basis, Debye-Ang):
   XX=             15.8487   YY=            -10.1593   ZZ=             -5.6894
   XY=              0.0013   XZ=             -0.0227   YZ=             -0.0128
 Octapole moment (field-independent basis, Debye-Ang**2):
  XXX=              0.0051  YYY=            -75.5251  ZZZ=              0.0081  XYY=              0.0036
  XXY=            -19.1640  XXZ=             -0.0176  XZZ=             -0.0009  YZZ=             15.8920
  YYZ=             -0.0084  XYZ=             -0.0448
 Hexadecapole moment (field-independent basis, Debye-Ang**3):
 XXXX=          -2358.0317 YYYY=          -1654.6695 ZZZZ=           -106.9003 XXXY=              0.0091
 XXXZ=             -0.1005 YYYX=              0.0089 YYYZ=             -0.0980 ZZZX=              0.0549
 ZZZY=              0.0220 XXYY=           -679.0063 XXZZ=           -535.0733 YYZZ=           -285.9901
 XXYZ=             -0.0468 YYXZ=             -0.2192 ZZXY=              0.0009
 N-N= 9.776801124215D+02 E-N=-3.557909010297D+03  KE= 6.855447058784D+02
 R6APFD:  NTU= -4 IXU= 1 FactS= 1.050
 Calling FoFJK, ICntrl=      2127 FMM=F ISym2X=0 I1Cent= 0 IOpClX= 0 NMat=1 NMatS=1 NMatT=0.
 ***** Axes restored to original set *****
 -------------------------------------------------------------------
 Center     Atomic                   Forces (Hartrees/Bohr)
 Number     Number              X              Y              Z
 -------------------------------------------------------------------
      1        8          -0.007940981   -0.024881262   -0.000106109
      2        8           0.008021479   -0.024967647    0.000033621
      3        6           0.010890560   -0.007738312    0.000008028
      4        6          -0.010945524   -0.007763535   -0.000008138
      5        6           0.004480619    0.000575752    0.000023613
      6        6          -0.004254629    0.000485647    0.000000862
      7        6           0.031149470    0.031068405    0.000157979
      8        6          -0.031254770    0.031210573   -0.000083476
      9        6           0.002165848   -0.000300308   -0.000014355
     10        6          -0.001981729   -0.000296141    0.000003688
     11        6          -0.000726826   -0.008194399   -0.000023932
     12        6           0.000533032   -0.008160215   -0.000018099
     13        6          -0.012341958    0.001317411   -0.000002809
     14        6           0.012144149    0.001449088   -0.000017198
     15        6          -0.000633283    0.004761736    0.000015672
     16        6           0.000754684    0.004684305    0.000021062
     17        1          -0.004334900    0.000766452    0.000004632
     18        1           0.004327054    0.000792619   -0.000004626
     19        1          -0.005639789    0.004017691    0.000012077
     20        1           0.005656023    0.003989880    0.000000789
     21        1          -0.000472619   -0.001844632   -0.000001651
     22        1           0.000470373   -0.001871416    0.000007309
     23        1           0.001828644    0.000450630   -0.000005431
     24        1          -0.001894925    0.000447679   -0.000003508
 -------------------------------------------------------------------
 Cartesian Forces:  Max     0.031254770 RMS     0.009350850

 GradGradGradGradGradGradGradGradGradGradGradGradGradGradGradGradGradGrad
 Berny optimization.
 FormGI is forming the generalized inverse of G from B-inverse, IUseBI=4.
 Internal  Forces:  Max     0.025829143 RMS     0.005129401
 Search for a local minimum.
 Step number   1 out of a maximum of  142
 All quantities printed in internal units (Hartrees-Bohrs-Radians)
 Mixed Optimization -- RFO/linear search
 Second derivative matrix not updated -- first step.
 ITU=  0
     Eigenvalues ---    0.00943   0.00986   0.01025   0.01457   0.01495
     Eigenvalues ---    0.01638   0.01755   0.01786   0.01852   0.02020
     Eigenvalues ---    0.02020   0.02064   0.02065   0.02124   0.02126
     Eigenvalues ---    0.02166   0.02166   0.02194   0.02196   0.02237
     Eigenvalues ---    0.02238   0.16000   0.16000   0.16000   0.16000
     Eigenvalues ---    0.16000   0.16000   0.16000   0.16000   0.22000
     Eigenvalues ---    0.22000   0.22567   0.22598   0.24486   0.24502
     Eigenvalues ---    0.25000   0.25000   0.25000   0.25000   0.25000
     Eigenvalues ---    0.31924   0.33500   0.34070   0.35182   0.35188
     Eigenvalues ---    0.35215   0.35225   0.35229   0.35240   0.35245
     Eigenvalues ---    0.35323   0.35335   0.39846   0.40677   0.41105
     Eigenvalues ---    0.41163   0.44117   0.44261   0.45340   0.45372
     Eigenvalues ---    0.46291   0.46306   0.47254   0.47266   0.94711
     Eigenvalues ---    0.94750
 RFO step:  Lambda=-8.62566733D-03 EMin= 9.42871849D-03
 Linear search not attempted -- first point.
 Iteration  1 RMS(Cart)=  0.04184319 RMS(Int)=  0.00040920
 Iteration  2 RMS(Cart)=  0.00058597 RMS(Int)=  0.00002689
 Iteration  3 RMS(Cart)=  0.00000011 RMS(Int)=  0.00002689
 Variable       Old X    -DE/DX   Delta X   Delta X   Delta X     New X
                                 (Linear)    (Quad)   (Total)
    R1        2.30818  -0.02572   0.00000  -0.02690  -0.02690   2.28128
    R2        2.30835  -0.02583   0.00000  -0.02703  -0.02703   2.28132
    R3        2.80813  -0.00494   0.00000  -0.01588  -0.01593   2.79220
    R4        2.66146  -0.00004   0.00000  -0.00156  -0.00155   2.65990
    R5        2.66384  -0.01033   0.00000  -0.02371  -0.02369   2.64015
    R6        2.66155  -0.00009   0.00000  -0.00165  -0.00165   2.65991
    R7        2.66400  -0.01038   0.00000  -0.02383  -0.02382   2.64018
    R8        2.78307   0.00548   0.00000   0.01589   0.01592   2.79898
    R9        2.65275  -0.00900   0.00000  -0.01971  -0.01969   2.63306
   R10        2.78299   0.00551   0.00000   0.01596   0.01599   2.79898
   R11        2.65237  -0.00883   0.00000  -0.01932  -0.01931   2.63307
   R12        2.82817   0.02336   0.00000   0.07126   0.07131   2.89948
   R13        2.64574  -0.00899   0.00000  -0.01927  -0.01929   2.62645
   R14        2.05279   0.00117   0.00000   0.00325   0.00325   2.05605
   R15        2.64536  -0.00884   0.00000  -0.01893  -0.01895   2.62641
   R16        2.05288   0.00115   0.00000   0.00318   0.00318   2.05605
   R17        2.62582  -0.00142   0.00000  -0.00225  -0.00227   2.62355
   R18        2.05370   0.00064   0.00000   0.00177   0.00177   2.05548
   R19        2.62582  -0.00143   0.00000  -0.00227  -0.00229   2.62353
   R20        2.05380   0.00061   0.00000   0.00168   0.00168   2.05548
   R21        2.62290   0.00629   0.00000   0.01371   0.01368   2.63657
   R22        2.05311   0.00135   0.00000   0.00373   0.00373   2.05684
   R23        2.62316   0.00619   0.00000   0.01351   0.01347   2.63663
   R24        2.05304   0.00137   0.00000   0.00380   0.00380   2.05684
   R25        2.05154   0.00184   0.00000   0.00507   0.00507   2.05661
   R26        2.05135   0.00190   0.00000   0.00525   0.00525   2.05660
    A1        2.11022   0.00138   0.00000   0.00256   0.00247   2.11269
    A2        2.14418  -0.00902   0.00000  -0.03125  -0.03124   2.11294
    A3        2.02879   0.00764   0.00000   0.02869   0.02877   2.05756
    A4        2.11028   0.00137   0.00000   0.00254   0.00245   2.11273
    A5        2.14414  -0.00902   0.00000  -0.03123  -0.03122   2.11292
    A6        2.02877   0.00764   0.00000   0.02869   0.02877   2.05753
    A7        2.09284   0.00426   0.00000   0.01648   0.01647   2.10931
    A8        2.13009  -0.00367   0.00000  -0.01552  -0.01548   2.11461
    A9        2.06025  -0.00059   0.00000  -0.00096  -0.00099   2.05926
   A10        2.09268   0.00428   0.00000   0.01656   0.01655   2.10924
   A11        2.13009  -0.00368   0.00000  -0.01552  -0.01548   2.11460
   A12        2.06042  -0.00061   0.00000  -0.00104  -0.00107   2.05934
   A13        2.14767  -0.00245   0.00000  -0.01086  -0.01091   2.13675
   A14        2.05546   0.00808   0.00000   0.02987   0.02982   2.08528
   A15        2.08006  -0.00563   0.00000  -0.01901  -0.01891   2.06115
   A16        2.14743  -0.00240   0.00000  -0.01068  -0.01073   2.13670
   A17        2.05547   0.00807   0.00000   0.02982   0.02977   2.08523
   A18        2.08029  -0.00566   0.00000  -0.01914  -0.01904   2.06125
   A19        2.12882  -0.00369   0.00000  -0.01764  -0.01764   2.11118
   A20        2.12321  -0.00251   0.00000  -0.01701  -0.01700   2.10621
   A21        2.03115   0.00620   0.00000   0.03464   0.03465   2.06580
   A22        2.12885  -0.00369   0.00000  -0.01764  -0.01765   2.11120
   A23        2.12317  -0.00251   0.00000  -0.01703  -0.01703   2.10614
   A24        2.03116   0.00620   0.00000   0.03467   0.03468   2.06584
   A25        2.09428   0.00010   0.00000   0.00157   0.00157   2.09585
   A26        2.11716  -0.00713   0.00000  -0.04277  -0.04277   2.07439
   A27        2.07175   0.00703   0.00000   0.04120   0.04120   2.11295
   A28        2.09435   0.00009   0.00000   0.00154   0.00154   2.09589
   A29        2.11717  -0.00713   0.00000  -0.04276  -0.04276   2.07441
   A30        2.07167   0.00704   0.00000   0.04122   0.04122   2.11289
   A31        2.09873   0.00080   0.00000   0.00511   0.00505   2.10379
   A32        2.09052  -0.00178   0.00000  -0.01076  -0.01073   2.07979
   A33        2.09393   0.00098   0.00000   0.00564   0.00567   2.09960
   A34        2.09869   0.00081   0.00000   0.00516   0.00510   2.10379
   A35        2.09072  -0.00180   0.00000  -0.01085  -0.01082   2.07990
   A36        2.09378   0.00099   0.00000   0.00569   0.00572   2.09950
   A37        2.08566  -0.00118   0.00000  -0.00221  -0.00227   2.08339
   A38        2.09877   0.00016   0.00000  -0.00146  -0.00143   2.09734
   A39        2.09876   0.00102   0.00000   0.00368   0.00370   2.10246
   A40        2.08563  -0.00118   0.00000  -0.00222  -0.00228   2.08335
   A41        2.09877   0.00016   0.00000  -0.00143  -0.00141   2.09736
   A42        2.09879   0.00102   0.00000   0.00366   0.00368   2.10247
    D1        0.00098   0.00001   0.00000   0.00004   0.00004   0.00102
    D2       -3.14093   0.00001   0.00000   0.00001   0.00001  -3.14092
    D3       -3.14086   0.00001   0.00000   0.00032   0.00031  -3.14055
    D4        0.00041   0.00001   0.00000   0.00029   0.00029   0.00070
    D5        0.00079   0.00000   0.00000  -0.00013  -0.00013   0.00065
    D6        3.14145   0.00001   0.00000   0.00025   0.00025  -3.14149
    D7       -3.14057  -0.00000   0.00000  -0.00038  -0.00039  -3.14096
    D8        0.00009   0.00000   0.00000  -0.00000  -0.00001   0.00009
    D9       -3.14153  -0.00001   0.00000  -0.00021  -0.00021   3.14144
   D10        0.00020  -0.00001   0.00000  -0.00022  -0.00022  -0.00002
   D11       -0.00018  -0.00000   0.00000   0.00005   0.00005  -0.00013
   D12        3.14155  -0.00000   0.00000   0.00004   0.00004  -3.14159
   D13       -0.00043   0.00000   0.00000   0.00005   0.00005  -0.00038
   D14        3.14122  -0.00000   0.00000  -0.00006  -0.00005   3.14116
   D15        3.14146   0.00001   0.00000   0.00008   0.00009   3.14155
   D16       -0.00008   0.00000   0.00000  -0.00002  -0.00002  -0.00009
   D17       -3.14121  -0.00000   0.00000  -0.00006  -0.00006  -3.14127
   D18        0.00046  -0.00000   0.00000  -0.00005  -0.00005   0.00041
   D19        0.00008  -0.00000   0.00000  -0.00009  -0.00009  -0.00001
   D20       -3.14144  -0.00000   0.00000  -0.00008  -0.00008  -3.14152
   D21        3.13797   0.00002   0.00000   0.00106   0.00106   3.13903
   D22       -0.00300   0.00000   0.00000   0.00021   0.00021  -0.00279
   D23       -0.00273   0.00001   0.00000   0.00070   0.00069  -0.00204
   D24        3.13949  -0.00000   0.00000  -0.00015  -0.00016   3.13933
   D25        0.00016  -0.00000   0.00000  -0.00010  -0.00010   0.00006
   D26        3.14156   0.00000   0.00000   0.00005   0.00005  -3.14157
   D27        3.14084   0.00000   0.00000   0.00028   0.00028   3.14112
   D28       -0.00094   0.00001   0.00000   0.00043   0.00043  -0.00051
   D29        3.14014  -0.00002   0.00000  -0.00055  -0.00055   3.13959
   D30       -0.00180  -0.00000   0.00000   0.00002   0.00002  -0.00178
   D31       -0.00151  -0.00001   0.00000  -0.00045  -0.00045  -0.00195
   D32        3.13974   0.00000   0.00000   0.00012   0.00012   3.13986
   D33       -0.00009   0.00001   0.00000   0.00021   0.00020   0.00012
   D34       -3.14151  -0.00000   0.00000  -0.00002  -0.00002  -3.14153
   D35        3.14156  -0.00000   0.00000   0.00010   0.00010  -3.14152
   D36        0.00014  -0.00001   0.00000  -0.00012  -0.00012   0.00002
   D37        0.00377  -0.00001   0.00000  -0.00045  -0.00046   0.00331
   D38       -3.13750  -0.00002   0.00000  -0.00099  -0.00100  -3.13849
   D39       -3.13842  -0.00000   0.00000   0.00034   0.00035  -3.13807
   D40        0.00350  -0.00001   0.00000  -0.00019  -0.00019   0.00332
   D41        0.00001   0.00000   0.00000   0.00001   0.00001   0.00002
   D42       -3.14156   0.00000   0.00000   0.00002   0.00001  -3.14154
   D43        3.14147  -0.00000   0.00000   0.00002   0.00002   3.14149
   D44       -0.00010   0.00000   0.00000   0.00002   0.00002  -0.00008
   D45        0.00008   0.00000   0.00000   0.00001   0.00001   0.00009
   D46        3.14148   0.00001   0.00000   0.00014   0.00014  -3.14157
   D47       -3.14158  -0.00000   0.00000  -0.00000  -0.00000  -3.14158
   D48       -0.00019   0.00000   0.00000   0.00013   0.00013  -0.00006
   D49       -0.00033   0.00000   0.00000   0.00017   0.00017  -0.00016
   D50        3.14152  -0.00000   0.00000  -0.00001  -0.00001   3.14151
   D51        3.14144  -0.00000   0.00000   0.00003   0.00002   3.14147
   D52        0.00011  -0.00001   0.00000  -0.00016  -0.00016  -0.00005
   D53        0.00025  -0.00001   0.00000  -0.00028  -0.00028  -0.00003
   D54       -3.14159  -0.00000   0.00000  -0.00009  -0.00009   3.14150
   D55       -3.14151  -0.00000   0.00000  -0.00007  -0.00006  -3.14157
   D56       -0.00016   0.00000   0.00000   0.00012   0.00012  -0.00004
   D57        0.00025  -0.00000   0.00000  -0.00012  -0.00013   0.00012
   D58        3.14158   0.00000   0.00000   0.00006   0.00006  -3.14155
   D59       -3.14137  -0.00000   0.00000  -0.00013  -0.00013  -3.14150
   D60       -0.00004   0.00000   0.00000   0.00005   0.00005   0.00002
   D61       -0.00025   0.00001   0.00000   0.00018   0.00018  -0.00007
   D62       -3.14159  -0.00000   0.00000  -0.00002  -0.00001   3.14158
   D63        3.14154   0.00000   0.00000   0.00005   0.00005   3.14159
   D64        0.00020  -0.00000   0.00000  -0.00014  -0.00014   0.00006
         Item               Value     Threshold  Converged?
 Maximum Force            0.025829     0.000450     NO 
 RMS     Force            0.005129     0.000300     NO 
 Maximum Displacement     0.180738     0.001800     NO 
 RMS     Displacement     0.041797     0.001200     NO 
 Predicted change in Energy=-4.437135D-03
 GradGradGradGradGradGradGradGradGradGradGradGradGradGradGradGradGradGrad

                          Input orientation:                          
 ---------------------------------------------------------------------
 Center     Atomic      Atomic             Coordinates (Angstroms)
 Number     Number       Type             X           Y           Z
 ---------------------------------------------------------------------
      1          8           0        1.361185    2.804327    0.004059
      2          8           0       -1.361201    2.804268   -0.003933
      3          6           0        0.738817   -0.759125    0.000093
      4          6           0       -0.738752   -0.759135    0.000452
      5          6           0        1.464772    0.446782    0.000135
      6          6           0       -1.464771    0.446737   -0.000386
      7          6           0        0.767183    1.753379    0.001374
      8          6           0       -0.767155    1.753320   -0.001167
      9          6           0        1.459690   -1.955890   -0.000326
     10          6           0       -1.459602   -1.955935    0.001218
     11          6           0        2.858125    0.449470   -0.000331
     12          6           0       -2.858127    0.449340   -0.000563
     13          6           0        2.849547   -1.953436   -0.000840
     14          6           0       -2.849436   -1.953556    0.001166
     15          6           0        3.556348   -0.750499   -0.000920
     16          6           0       -3.556320   -0.750633    0.000231
     17          1           0        0.944540   -2.914217   -0.000378
     18          1           0       -0.944358   -2.914218    0.001951
     19          1           0        3.381186    1.403159   -0.000261
     20          1           0       -3.381268    1.402988   -0.001283
     21          1           0        3.381620   -2.902953   -0.001207
     22          1           0       -3.381555   -2.903048    0.001798
     23          1           0        4.644660   -0.750019   -0.001364
     24          1           0       -4.644629   -0.750205    0.000179
 ---------------------------------------------------------------------
                    Distance matrix (angstroms):
                    1          2          3          4          5
     1  O    0.000000
     2  O    2.722398   0.000000
     3  C    3.617396   4.136165   0.000000
     4  C    4.136184   3.617361   1.477570   0.000000
     5  C    2.359823   3.680201   1.407560   2.511923   0.000000
     6  C    3.680255   2.359807   2.511952   1.407562   2.929543
     7  C    1.207202   2.373692   2.512665   2.929261   1.481158
     8  C    2.373705   1.207223   2.929221   2.512617   2.586222
     9  C    4.761238   5.533221   1.397105   2.503072   2.402677
    10  C    5.533258   4.761223   2.503078   1.397124   3.784841
    11  C    2.790377   4.831956   2.439707   3.794503   1.393355
    12  C    4.832037   2.790427   3.794522   2.439706   4.322901
    13  C    4.985134   6.353436   2.425193   3.781831   2.771037
    14  C    6.353487   4.985154   3.781829   2.425207   4.937005
    15  C    4.177985   6.067838   2.817544   4.295109   2.410015
    16  C    6.067917   4.178024   4.295146   2.817581   5.161897
    17  H    5.733704   6.165835   2.164889   2.734566   3.401023
    18  H    6.165816   5.733661   2.734502   2.164868   4.135243
    19  H    2.458392   4.945033   3.414320   4.652892   2.141797
    20  H    4.945164   2.458509   4.652939   3.414333   4.939478
    21  H    6.054357   7.420696   3.403000   4.644720   3.859409
    22  H    7.420763   6.054363   4.644768   3.403053   5.891371
    23  H    4.838865   6.978777   3.905854   5.383421   3.397649
    24  H    6.978862   4.838924   5.383453   3.905886   6.225557
                    6          7          8          9         10
     6  C    0.000000
     7  C    2.586298   0.000000
     8  C    1.481158   1.534340   0.000000
     9  C    3.784850   3.773360   4.326324   0.000000
    10  C    2.402679   4.326383   3.773336   2.919292   0.000000
    11  C    4.322897   2.464188   3.852620   2.782333   4.942544
    12  C    1.393359   3.852713   2.464251   4.942538   2.782306
    13  C    4.937020   4.251673   5.178859   1.389859   4.309150
    14  C    2.771048   5.178929   4.251686   4.309127   1.389837
    15  C    5.161880   3.748180   4.996178   2.418459   5.158763
    16  C    2.410036   4.996275   3.748230   5.158779   2.418467
    17  H    4.135310   4.670965   4.971499   1.088013   2.588089
    18  H    3.401007   4.971502   4.670902   2.588019   1.088017
    19  H    4.939437   2.637360   4.163093   3.869800   5.892091
    20  H    2.141817   4.163223   2.637484   5.892108   3.869777
    21  H    5.891344   5.340105   6.236443   2.142602   4.932979
    22  H    3.859421   6.236533   5.340118   4.933028   2.142645
    23  H    6.225542   4.615392   5.962755   3.405608   6.222239
    24  H    3.397671   5.962855   4.615457   6.222249   3.405611
                   11         12         13         14         15
    11  C    0.000000
    12  C    5.716253   0.000000
    13  C    2.402921   6.192809   0.000000
    14  C    6.192802   2.402912   5.698984   0.000000
    15  C    1.388323   6.525727   1.395215   6.517778   0.000000
    16  C    6.525746   1.388312   6.517812   1.395245   7.112668
    17  H    3.869909   5.076790   2.133577   3.913710   3.391640
    18  H    5.076739   3.869889   3.913671   2.133588   4.993800
    19  H    1.087711   6.311798   3.398436   7.077301   2.160769
    20  H    6.311832   1.087713   7.077333   3.398417   7.264160
    21  H    3.393050   7.083242   1.088432   6.302970   2.159535
    22  H    7.083289   3.393006   6.303047   1.088433   7.264157
    23  H    2.151855   7.598045   2.161168   7.590125   1.088313
    24  H    7.598061   2.151858   7.590154   2.161197   8.200977
                   16         17         18         19         20
    16  C    0.000000
    17  H    4.993880   0.000000
    18  H    3.391673   1.888899   0.000000
    19  H    7.264145   4.957517   6.111470   0.000000
    20  H    2.160724   6.111536   4.957500   6.762454   0.000000
    21  H    7.264124   2.437107   4.325994   4.306112   8.017343
    22  H    2.159499   4.326109   2.437223   8.017361   4.306037
    23  H    8.200981   4.286566   5.993404   2.496506   8.309691
    24  H    1.088308   5.993476   4.286602   8.309673   2.496461
                   21         22         23         24
    21  H    0.000000
    22  H    6.763176   0.000000
    23  H    2.496077   8.309975   0.000000
    24  H    8.309934   2.496015   9.289289   0.000000
 Stoichiometry    C14H8O2
 Framework group  C1[X(C14H8O2)]
 Deg. of freedom    66
 Full point group                 C1      NOp   1
 Largest Abelian subgroup         C1      NOp   1
 Largest concise Abelian subgroup C1      NOp   1
                         Standard orientation:                         
 ---------------------------------------------------------------------
 Center     Atomic      Atomic             Coordinates (Angstroms)
 Number     Number       Type             X           Y           Z
 ---------------------------------------------------------------------
      1          8           0        1.361255    2.792199    0.004047
      2          8           0       -1.361131    2.792226   -0.003945
      3          6           0        0.738774   -0.771233    0.000081
      4          6           0       -0.738795   -0.771197    0.000441
      5          6           0        1.464768    0.434651    0.000124
      6          6           0       -1.464775    0.434699   -0.000398
      7          6           0        0.767220    1.741270    0.001363
      8          6           0       -0.767118    1.741260   -0.001179
      9          6           0        1.459610   -1.968021   -0.000337
     10          6           0       -1.459682   -1.967974    0.001206
     11          6           0        2.858121    0.437295   -0.000343
     12          6           0       -2.858132    0.437346   -0.000575
     13          6           0        2.849466   -1.965611   -0.000852
     14          6           0       -2.849517   -1.965551    0.001155
     15          6           0        3.556306   -0.762696   -0.000931
     16          6           0       -3.556363   -0.762606    0.000220
     17          1           0        0.944429   -2.926332   -0.000390
     18          1           0       -0.944469   -2.926272    0.001940
     19          1           0        3.381211    1.390967   -0.000272
     20          1           0       -3.381243    1.391010   -0.001295
     21          1           0        3.381510   -2.915145   -0.001218
     22          1           0       -3.381665   -2.915026    0.001787
     23          1           0        4.644618   -0.762250   -0.001376
     24          1           0       -4.644671   -0.762143    0.000168
 ---------------------------------------------------------------------
 Rotational constants (GHZ):           0.8651391           0.5183572           0.3241436
 Standard basis: 6-311++G(d,p) (5D, 7F)
 There are   424 symmetry adapted cartesian basis functions of A   symmetry.
 There are   408 symmetry adapted basis functions of A   symmetry.
   408 basis functions,   648 primitive gaussians,   424 cartesian basis functions
    54 alpha electrons       54 beta electrons
       nuclear repulsion energy       979.8681923876 Hartrees.
 NAtoms=   24 NActive=   24 NUniq=   24 SFac= 1.00D+00 NAtFMM=   60 NAOKFM=F Big=F
 Integral buffers will be    131072 words long.
 Raffenetti 2 integral format.
 Two-electron integral symmetry is turned on.
 R6APFD:  NTU= -4 IXU= 1 FactS= 1.050
 Nuclear repulsion after empirical dispersion term =      979.8502867685 Hartrees.
 One-electron integrals computed using PRISM.
 NBasis=   408 RedAO= T EigKep=  1.52D-06  NBF=   408
 NBsUse=   401 1.00D-06 EigRej=  8.92D-07 NBFU=   401
 Initial guess from the checkpoint file:  "PHRE0143.chk"
 B after Tr=    -0.000000    0.000000   -0.000000
         Rot=    1.000000    0.000029    0.000000    0.000012 Ang=   0.00 deg.
 ExpMin= 3.60D-02 ExpMax= 8.59D+03 ExpMxC= 1.30D+03 IAcc=3 IRadAn=         5 AccDes= 0.00D+00
 Harris functional with IExCor= 1009 and IRadAn=       5 diagonalized for initial guess.
 HarFok:  IExCor= 1009 AccDes= 0.00D+00 IRadAn=         5 IDoV= 1 UseB2=F ITyADJ=14
 ICtDFT=  3500011 ScaDFX=  1.000000  1.000000  1.000000  1.000000
 FoFCou: FMM=F IPFlag=           0 FMFlag=      100000 FMFlg1=           0
         NFxFlg=           0 DoJE=T BraDBF=F KetDBF=T FulRan=T
         wScrn=  0.000000 ICntrl=       500 IOpCl=  0 I1Cent=   200000004 NGrid=           0
         NMat0=    1 NMatS0=      1 NMatT0=    0 NMatD0=    1 NMtDS0=    0 NMtDT0=    0
 Petite list used in FoFCou.
 Requested convergence on RMS density matrix=1.00D-08 within  32 cycles.
 Requested convergence on MAX density matrix=1.00D-06.
 Requested convergence on             energy=1.00D-06.
 No special actions if energy rises.
 SCF Done:  E(RM08HX) =  -688.738252148     A.U. after   14 cycles
            NFock= 14  Conv=0.31D-08     -V/T= 2.0044
 QCSCF skips out because SCF is already converged.
 R6APFD:  NTU= -4 IXU= 1 FactS= 1.050
 Calling FoFJK, ICntrl=      2127 FMM=F ISym2X=0 I1Cent= 0 IOpClX= 0 NMat=1 NMatS=1 NMatT=0.
 ***** Axes restored to original set *****
 -------------------------------------------------------------------
 Center     Atomic                   Forces (Hartrees/Bohr)
 Number     Number              X              Y              Z
 -------------------------------------------------------------------
      1        8          -0.005659312   -0.006462941   -0.000020548
      2        8           0.005671256   -0.006483773    0.000036699
      3        6           0.003124744    0.000710797   -0.000005059
      4        6          -0.003146017    0.000699800   -0.000003731
      5        6          -0.002964817   -0.002481562    0.000031276
      6        6           0.002991881   -0.002495270    0.000009667
      7        6           0.009674567    0.009856692    0.000004318
      8        6          -0.009709060    0.009903038   -0.000051148
      9        6           0.002711885   -0.001835973   -0.000009216
     10        6          -0.002686637   -0.001836380    0.000007151
     11        6           0.002801153   -0.003292888   -0.000003630
     12        6          -0.002809440   -0.003274174    0.000003095
     13        6          -0.000250475    0.000803163    0.000000798
     14        6           0.000216363    0.000821799   -0.000005246
     15        6           0.000314379    0.000386249    0.000001876
     16        6          -0.000288036    0.000366609    0.000002754
     17        1           0.001255774    0.001444215   -0.000001130
     18        1          -0.001262377    0.001443650   -0.000000295
     19        1          -0.001004437    0.001051004    0.000004726
     20        1           0.001009985    0.001053225   -0.000001177
     21        1           0.000653299    0.000105686   -0.000001344
     22        1          -0.000643191    0.000099910    0.000002258
     23        1          -0.000168911   -0.000291809   -0.000001599
     24        1           0.000167423   -0.000291067   -0.000000496
 -------------------------------------------------------------------
 Cartesian Forces:  Max     0.009903038 RMS     0.003016300

 GradGradGradGradGradGradGradGradGradGradGradGradGradGradGradGradGradGrad
 Berny optimization.
 Using GEDIIS/GDIIS optimizer.
 FormGI is forming the generalized inverse of G from B-inverse, IUseBI=4.
 Internal  Forces:  Max     0.008435217 RMS     0.001708254
 Search for a local minimum.
 Step number   2 out of a maximum of  142
 All quantities printed in internal units (Hartrees-Bohrs-Radians)
 Mixed Optimization -- RFO/linear search
 Update second derivatives using D2CorX and points    1    2
 DE= -4.32D-03 DEPred=-4.44D-03 R= 9.74D-01
 TightC=F SS=  1.41D+00  RLast= 1.70D-01 DXNew= 5.0454D-01 5.0954D-01
 Trust test= 9.74D-01 RLast= 1.70D-01 DXMaxT set to 5.05D-01
 ITU=  1  0
 Use linear search instead of GDIIS.
     Eigenvalues ---    0.00940   0.00986   0.01022   0.01463   0.01500
     Eigenvalues ---    0.01644   0.01751   0.01783   0.01856   0.02021
     Eigenvalues ---    0.02022   0.02064   0.02065   0.02129   0.02130
     Eigenvalues ---    0.02167   0.02167   0.02194   0.02196   0.02237
     Eigenvalues ---    0.02238   0.14768   0.16000   0.16000   0.16000
     Eigenvalues ---    0.16000   0.16000   0.16000   0.16185   0.21749
     Eigenvalues ---    0.22000   0.22570   0.22807   0.23935   0.24488
     Eigenvalues ---    0.24847   0.25000   0.25000   0.25000   0.27015
     Eigenvalues ---    0.30473   0.34057   0.34603   0.35099   0.35183
     Eigenvalues ---    0.35189   0.35226   0.35230   0.35242   0.35308
     Eigenvalues ---    0.35330   0.36103   0.39834   0.40899   0.41175
     Eigenvalues ---    0.42017   0.44104   0.44790   0.45356   0.46247
     Eigenvalues ---    0.46293   0.47003   0.47261   0.50401   0.86849
     Eigenvalues ---    0.94731
 RFO step:  Lambda=-9.77496982D-04 EMin= 9.39981597D-03
 Quartic linear search produced a step of -0.00493.
 Iteration  1 RMS(Cart)=  0.01567200 RMS(Int)=  0.00007206
 Iteration  2 RMS(Cart)=  0.00009922 RMS(Int)=  0.00000198
 Iteration  3 RMS(Cart)=  0.00000000 RMS(Int)=  0.00000198
 Variable       Old X    -DE/DX   Delta X   Delta X   Delta X     New X
                                 (Linear)    (Quad)   (Total)
    R1        2.28128  -0.00841   0.00013  -0.01202  -0.01189   2.26939
    R2        2.28132  -0.00844   0.00013  -0.01206  -0.01193   2.26939
    R3        2.79220   0.00768   0.00008   0.02082   0.02090   2.81310
    R4        2.65990   0.00048   0.00001   0.00132   0.00133   2.66123
    R5        2.64015   0.00333   0.00012   0.00499   0.00511   2.64526
    R6        2.65991   0.00048   0.00001   0.00130   0.00131   2.66122
    R7        2.64018   0.00332   0.00012   0.00496   0.00508   2.64526
    R8        2.79898   0.00243  -0.00008   0.00860   0.00852   2.80751
    R9        2.63306   0.00186   0.00010   0.00179   0.00189   2.63495
   R10        2.79898   0.00243  -0.00008   0.00859   0.00851   2.80750
   R11        2.63307   0.00186   0.00010   0.00182   0.00192   2.63498
   R12        2.89948   0.00281  -0.00035   0.01673   0.01638   2.91587
   R13        2.62645   0.00048   0.00010  -0.00127  -0.00118   2.62528
   R14        2.05605  -0.00187  -0.00002  -0.00487  -0.00488   2.05116
   R15        2.62641   0.00049   0.00009  -0.00121  -0.00112   2.62529
   R16        2.05605  -0.00187  -0.00002  -0.00488  -0.00490   2.05115
   R17        2.62355  -0.00154   0.00001  -0.00378  -0.00377   2.61978
   R18        2.05548   0.00044  -0.00001   0.00145   0.00144   2.05691
   R19        2.62353  -0.00153   0.00001  -0.00377  -0.00376   2.61977
   R20        2.05548   0.00044  -0.00001   0.00143   0.00143   2.05691
   R21        2.63657  -0.00145  -0.00007  -0.00170  -0.00177   2.63481
   R22        2.05684   0.00023  -0.00002   0.00108   0.00106   2.05790
   R23        2.63663  -0.00146  -0.00007  -0.00175  -0.00182   2.63481
   R24        2.05684   0.00023  -0.00002   0.00109   0.00107   2.05791
   R25        2.05661  -0.00017  -0.00002   0.00013   0.00010   2.05672
   R26        2.05660  -0.00017  -0.00003   0.00015   0.00013   2.05673
    A1        2.11269  -0.00141  -0.00001  -0.00506  -0.00508   2.10762
    A2        2.11294   0.00418   0.00015   0.01194   0.01210   2.12503
    A3        2.05756  -0.00277  -0.00014  -0.00688  -0.00702   2.05054
    A4        2.11273  -0.00142  -0.00001  -0.00509  -0.00510   2.10762
    A5        2.11292   0.00419   0.00015   0.01195   0.01210   2.12502
    A6        2.05753  -0.00277  -0.00014  -0.00686  -0.00700   2.05054
    A7        2.10931   0.00209  -0.00008   0.01026   0.01017   2.11948
    A8        2.11461   0.00028   0.00008  -0.00032  -0.00024   2.11437
    A9        2.05926  -0.00237   0.00000  -0.00994  -0.00993   2.04933
   A10        2.10924   0.00211  -0.00008   0.01033   0.01025   2.11948
   A11        2.11460   0.00028   0.00008  -0.00031  -0.00023   2.11437
   A12        2.05934  -0.00239   0.00001  -0.01002  -0.01001   2.04933
   A13        2.13675   0.00233   0.00005   0.00806   0.00811   2.14487
   A14        2.08528  -0.00166  -0.00015  -0.00289  -0.00304   2.08224
   A15        2.06115  -0.00067   0.00009  -0.00517  -0.00507   2.05608
[...]
 00256,-0.00000116,-0.00041055,-0.00011426,0.00031477,0.13418722,-0.000
 75455,-0.00091364,-0.00000127,0.00307827,0.00086949,0.00000102,-0.0019
 0622,0.00006922,0.00000087,0.00331814,-0.00152159,-0.00000152,0.000788
 48,0.00038140,0.00000034,-0.02545100,-0.02812273,0.00002612,-0.0001736
 6,-0.00054900,0.00000037,-0.00875674,0.00287701,-0.00000729,0.00022057
 ,-0.00040604,0.00000050,-0.02391364,0.03037660,-0.00002799,-0.00035971
 ,0.00038932,0.00000026,-0.19408770,-0.13990453,0.00010755,-0.00014729,
 -0.00050718,-0.00000030,-0.18690523,0.12986050,-0.00010750,-0.00027289
 ,-0.00010004,-0.00000020,0.75665109,-0.00004050,0.00092103,-0.00000061
 ,0.00148465,-0.00190546,-0.00000145,-0.00136706,0.00072909,-0.00000224
 ,-0.00248956,-0.08098913,0.00005994,-0.00390700,0.00031471,-0.00000078
 ,-0.08431986,0.03266238,-0.00004060,0.00151180,-0.00046850,0.00000514,
 0.00140510,0.00912992,0.00000743,0.00350042,-0.00080439,-0.00000230,0.
 08764547,0.04166697,-0.00002400,0.00357893,-0.00153268,-0.00000248,-0.
 06203047,-0.30059021,0.00019129,-0.00331694,-0.00133773,0.00000227,0.0
 5001910,-0.28547867,0.00018787,0.00009990,0.00366695,0.00000293,0.0086
 9479,0.67282986,0.00000037,-0.00000047,0.00031525,-0.00000602,-0.00000
 294,-0.00061925,0.00000101,-0.00000105,-0.00105886,0.00000415,0.000062
 32,-0.00389911,0.00000409,-0.00000031,-0.00043503,0.00005905,-0.000016
 16,0.00635391,-0.00000067,0.00000030,-0.00128780,0.00000507,-0.0000043
 3,0.00743594,-0.00000291,0.00000134,0.00035530,-0.00007267,-0.00002878
 ,0.00568445,-0.00000339,0.00000106,0.00020703,0.00005039,0.00018405,-0
 .06298186,0.00000322,0.00000116,-0.00041056,-0.00004097,0.00018273,-0.
 06303424,-0.00000039,-0.00000365,0.00027344,0.00000462,-0.00043170,0.1
 3418729,-0.00020456,0.00052941,0.,-0.00013504,-0.00017456,0.00000001,0
 .01290394,0.01277980,0.00000763,-0.00012757,-0.00148131,-0.00000063,-0
 .00145064,0.00341663,0.00000436,-0.00000359,-0.00022193,-0.00000041,0.
 00093423,0.00031207,0.00000055,0.00034479,0.00023883,0.00000011,-0.118
 09870,-0.11598578,-0.00007758,-0.00250864,0.00141906,0.00000231,-0.000
 95593,0.00099346,0.00000012,0.00005737,-0.00018628,0.00000052,-0.01039
 530,-0.02935667,-0.00001734,0.00001000,-0.00009473,-0.00000034,-0.0057
 1047,0.00098634,0.00000312,-0.00002408,-0.00003342,-0.00000028,0.13133
 184,0.00026175,-0.00110191,-0.00000019,0.00031175,0.00013210,0.0000003
 6,-0.01464916,-0.01831971,-0.00001024,-0.00167943,-0.00021453,0.000003
 62,0.00449908,-0.00315034,-0.00000874,0.00047690,0.00022726,0.00000099
 ,-0.00163579,0.00054269,0.00000023,-0.00058680,-0.00033607,-0.00000088
 ,-0.11671459,-0.28015841,-0.00016932,-0.00058693,-0.00067258,0.0000028
 0,0.00079625,0.00029225,0.00000108,-0.00019369,0.00001817,-0.00000031,
 0.00240571,0.00318012,-0.00000010,0.00005623,0.00077847,0.00000089,0.0
 0040770,0.00171878,-0.00000487,-0.00016652,0.00009810,-0.00000053,0.12
 756993,0.29432281,0.00000038,-0.00000034,-0.00040606,0.00000016,0.0000
 0048,0.00004932,-0.00001954,-0.00000958,0.00258942,0.00000410,0.000003
 24,-0.00350030,0.00000415,-0.00000644,0.00736790,-0.00000252,0.0000021
 5,-0.00009114,-0.00000158,-0.00000043,0.00073587,-0.00000063,-0.000000
 53,-0.00017943,-0.00007498,-0.00017693,-0.03688638,0.00000421,-0.00000
 588,-0.00009126,0.00000125,0.00000002,-0.00144739,0.00000198,0.0000018
 5,0.00019973,0.00000477,0.00000503,0.00408794,-0.00000315,0.00000265,-
 0.00043748,0.00000346,-0.00000322,0.00763153,-0.00000025,-0.00000256,-
 0.00003286,0.00006685,0.00018371,0.02364542,-0.00013503,0.00017455,-0.
 00000007,-0.00020453,-0.00052938,0.00000061,-0.00012769,0.00148131,-0.
 00000023,0.01290387,-0.01277866,0.00001126,-0.00000358,0.00022193,-0.0
 0000030,-0.00145035,-0.00341657,0.00000289,0.00034478,-0.00023880,0.00
 000024,0.00093418,-0.00031205,0.00000033,-0.00250861,-0.00141912,0.000
 00251,-0.11810687,0.11599119,-0.00010713,0.00005735,0.00018628,0.00000
 042,-0.00095586,-0.00099351,0.00000043,0.00001000,0.00009470,-0.000000
 25,-0.01039631,0.02935619,-0.00002453,-0.00002409,0.00003341,-0.000000
 24,-0.00571042,-0.00098660,0.00000113,-0.00594227,-0.00041144,0.000012
 40,0.13134087,-0.00031177,0.00013209,-0.00000020,-0.00026172,-0.001101
 94,0.00000100,0.00167944,-0.00021441,-0.00000472,0.01465028,-0.0183196
 4,0.00001697,-0.00047691,0.00022725,-0.00000058,-0.00449902,-0.0031506
 3,0.00000789,0.00058682,-0.00033605,0.00000066,0.00163580,0.00054274,0
 .00000013,0.00058686,-0.00067261,-0.00000245,0.11672004,-0.28014961,0.
 00022780,0.00019369,0.00001818,0.00000028,-0.00079629,0.00029218,-0.00
 000151,-0.00005626,0.00077847,-0.00000106,-0.00240619,0.00318107,0.000
 00008,0.00016651,0.00009811,0.00000039,-0.00040797,0.00171874,0.000005
 62,0.00041115,0.00190200,0.00000234,-0.12757541,0.29431321,0.00000022,
 -0.00000045,0.00004932,0.00000049,0.00000008,-0.00040606,0.00000333,-0
 .00000428,-0.00350029,-0.00002047,0.00000932,0.00258942,-0.00000232,-0
 .00000201,-0.00009114,0.00000358,0.00000885,0.00736791,-0.00000085,0.0
 0000042,-0.00017942,-0.00000257,0.00000059,0.00073587,0.00000379,0.000
 00585,-0.00009126,-0.00010158,0.00023552,-0.03688657,0.00000189,-0.000
 00174,0.00019973,0.00000256,0.00000007,-0.00144739,-0.00000311,-0.0000
 0280,-0.00043748,0.00000034,0.00000089,0.00408794,-0.00000028,0.000002
 41,-0.00003286,0.00000087,0.00000287,0.00763153,0.00001245,-0.00000250
 ,0.00170743,0.00010179,-0.00024776,0.02364561,0.00129232,0.00183857,0.
 00000168,0.00036650,0.00018633,-0.00000021,-0.00549062,0.00148206,0.00
 000153,-0.00008404,-0.00165884,0.00000103,-0.00979649,-0.02819750,-0.0
 0001309,0.00038142,0.00005568,-0.00000084,-0.00112730,-0.00307769,-0.0
 0000605,-0.00048462,-0.00039488,0.00000271,-0.00080733,0.00085915,0.00
 000062,-0.00047650,0.00024560,-0.00000053,-0.12065706,-0.11612417,-0.0
 0005142,-0.00005088,0.00011274,0.00000003,-0.00113839,0.00355485,0.000
 00348,0.00000060,-0.00014432,0.00000039,0.01220116,0.01547081,0.000007
 39,-0.00002157,0.00004686,-0.00000008,0.00004719,-0.00008918,-0.000000
 16,0.00002610,-0.00000595,0.00000002,0.12492360,0.00235077,-0.00124119
 ,-0.00000043,-0.00026609,0.00007954,-0.00000010,0.00106808,0.00141383,
 -0.00000224,0.00002793,0.00026993,-0.00000102,-0.00150812,0.00373073,0
 .00000019,-0.00026362,-0.00012784,0.00000053,0.00007769,-0.00130078,0.
 00000216,0.00022454,0.00012596,-0.00000149,0.00123718,0.00015342,0.000
 00010,0.00011697,0.00000628,0.00000013,-0.11737828,-0.27675514,-0.0001
 1197,0.00005980,-0.00004494,0.00000008,0.00319348,-0.00305448,-0.00000
 676,-0.00005094,0.00002113,-0.00000004,-0.01387083,-0.01484161,-0.0000
 0999,-0.00000540,-0.00006331,0.,-0.00005604,-0.00005834,0.00000044,-0.
 00000997,-0.00001468,-0.00000002,0.12549205,0.29180172,0.00000356,-0.0
 0000096,-0.00009667,-0.00000070,0.00000029,-0.00009877,0.00000364,-0.0
 0000485,0.00725591,0.00000015,0.00000017,0.00031498,-0.00000216,0.0000
 1003,0.00375985,-0.00000047,-0.00000029,-0.00000487,-0.00000112,-0.000
 00398,-0.00387800,0.00000033,0.00000037,0.00033052,-0.00000062,0.00000
 135,-0.00135612,-0.00000001,-0.00000021,-0.00020009,-0.00005031,-0.000
 11200,-0.04104592,0.00000014,0.00000016,0.00000386,0.00000311,-0.00000
 657,0.00781961,-0.00000030,0.,-0.00009403,-0.00000826,-0.00001415,0.00
 506886,0.00000009,-0.00000028,-0.00000498,-0.00000015,0.00000049,-0.00
 080511,-0.00000008,0.00000006,-0.00000047,0.00005430,0.00012754,0.0274
 9641,0.00036649,-0.00018632,-0.00000012,0.00129247,-0.00183847,0.00000
 360,-0.00008410,0.00165883,0.00000039,-0.00549053,-0.00148231,-0.00000
 050,0.00038142,-0.00005566,-0.00000091,-0.00979759,0.02819702,-0.00002
 100,-0.00048463,0.00039486,0.00000231,-0.00112740,0.00307769,-0.000007
 25,-0.00047648,-0.00024562,-0.00000030,-0.00080726,-0.00085919,0.00000
 069,-0.00005087,-0.00011274,0.00000008,-0.12066551,0.11612952,-0.00008
 998,0.00000059,0.00014432,0.00000033,-0.00113814,-0.00355478,0.0000025
 7,-0.00002157,-0.00004686,-0.00000008,0.01220122,-0.01546983,0.0000118
 2,0.00002610,0.00000595,0.00000001,0.00004718,0.00008919,0.00000003,-0
 .00004534,0.00001679,0.,0.12493269,0.00026610,0.00007954,-0.00000039,-
 0.00235066,-0.00124132,-0.00000065,-0.00002794,0.00026999,0.00000093,-
 0.00106833,0.00141374,0.00000372,0.00026363,-0.00012783,-0.00000072,0.
 00150763,0.00373180,0.00000113,-0.00022456,0.00012597,0.00000255,-0.00
 007769,-0.00130067,-0.00000182,-0.00011699,0.00000626,-0.00000022,-0.0
 0123721,0.00015334,-0.00000096,-0.00005980,-0.00004494,-0.00000002,0.1
 1738360,-0.27674600,0.00017574,0.00005094,0.00002113,-0.00000005,-0.00
 319342,-0.00305474,0.00000866,0.00000540,-0.00006331,0.00000002,0.0138
 7183,-0.01484173,0.00001690,0.00000998,-0.00001468,0.00000001,0.000056
 04,-0.00005834,-0.00000054,-0.00001679,0.00001344,0.00000003,-0.125497
 80,0.29179200,-0.00000125,-0.00000060,-0.00009877,0.00000546,0.0000015
 8,-0.00009667,-0.00000022,0.00000024,0.00031497,0.00000097,0.00000701,
 0.00725594,-0.00000076,0.00000061,-0.00000487,-0.00000520,-0.00000796,
 0.00375984,0.00000126,-0.00000023,0.00033051,-0.00000195,0.00000636,-0
 .00387800,-0.00000019,0.00000007,-0.00020008,-0.00000122,-0.00000310,-
 0.00135612,0.00000019,-0.00000008,0.00000386,-0.00008915,0.00017601,-0
 .04104613,-0.00000038,0.00000007,-0.00009403,0.00000349,0.00000736,0.0
 0781960,0.00000011,0.00000031,-0.00000498,-0.00000881,0.00001735,0.005
 06888,-0.00000011,-0.00000001,-0.00000047,-0.00000006,-0.00000061,-0.0
 0080511,0.00000002,-0.00000004,0.00000768,0.00009793,-0.00020052,0.027
 49663,0.00016849,0.00005839,-0.00000002,0.00002922,0.00011543,-0.00000
 013,-0.00552634,-0.00088805,0.00000274,-0.00001858,0.00158742,0.000000
 63,-0.00091301,-0.00107362,-0.00000092,-0.00047515,-0.00016429,0.00000
 007,-0.00008158,-0.00004527,0.00000015,-0.00007374,-0.00024153,-0.0000
 0005,-0.01016474,0.02817799,0.00002188,0.00002383,0.00005291,-0.000000
 33,-0.00072145,-0.00362166,-0.00000049,-0.00000911,0.00017838,-0.00000
 006,-0.12763378,0.11994425,0.00009686,-0.00001277,-0.00003593,0.000000
 10,0.01201305,-0.01451178,-0.00001132,-0.00002549,-0.00001733,-0.00000
 011,0.00049071,-0.00023531,-0.00000117,-0.00000551,-0.00000826,0.00000
 015,0.00043725,-0.00069413,-0.00000033,-0.00005548,-0.00000601,-0.0000
 0002,0.13207007,0.00021274,0.00002901,-0.00000029,0.00007199,-0.000072
 20,0.00000025,-0.00084174,0.00176030,-0.00000434,-0.00020496,0.0000620
 4,0.00000013,-0.00126584,0.00042749,0.00000111,-0.00007807,0.00000994,
 0.00000030,0.00002968,-0.00024995,0.00000087,-0.00002287,0.00003696,-0
 .00000038,-0.00287571,0.00384320,0.00000046,0.00011381,0.00003271,-0.0
 0000024,-0.00373462,-0.00381614,-0.00000660,0.00006230,0.00004499,0.00
 000006,0.12051895,-0.26963096,-0.00017703,-0.00006286,0.00000562,0.000
 00016,0.01628654,-0.01673492,-0.00001753,0.00003153,-0.00006889,-0.000
 00002,0.00029873,0.00074711,0.00000329,-0.00000801,-0.00002891,-0.0000
 0005,0.00083573,-0.00075405,-0.00000015,0.00000011,0.00000043,-0.00000
 005,-0.12900716,0.28378031,0.00000058,-0.00000063,0.00020341,0.0000001
 1,0.00000004,-0.00005568,0.00000068,-0.00000233,0.00795380,-0.00000016
 ,0.00000008,0.00013002,-0.00000189,0.00000088,-0.00106216,-0.00000003,
 -0.00000031,-0.00046194,-0.00000039,0.00000007,-0.00120158,-0.00000047
 ,0.00000013,0.00029646,0.00000299,-0.00000675,0.00420335,0.00000045,0.
 00000040,0.00005940,0.00000076,-0.00000777,0.00731191,0.00000031,0.000
 00017,-0.00004280,0.00009481,-0.00017984,-0.03997188,-0.00000014,-0.00
 000009,-0.00004966,0.00001032,-0.00000718,0.00460652,0.00000004,-0.000
 00023,0.00002230,-0.00000059,0.00000379,-0.00425019,0.00000023,-0.0000
 0010,0.00001322,0.00000042,0.,-0.00029626,0.,0.00000004,0.00005754,-0.
 00010715,0.00019704,0.02626378,0.00002923,-0.00011543,-0.00000004,0.00
 016850,-0.00005838,0.00000014,-0.00001853,-0.00158742,0.00000071,-0.00
 552640,0.00088779,0.00000033,-0.00047516,0.00016427,0.00000015,-0.0009
 1309,0.00107357,-0.00000125,-0.00007375,0.00024152,-0.00000011,-0.0000
 8158,0.00004528,0.00000017,0.00002384,-0.00005291,-0.00000035,-0.01016
 383,-0.02817850,0.00002458,-0.00000910,-0.00017838,-0.00000002,-0.0007
 2172,0.00362177,-0.00000299,-0.00001277,0.00003593,0.00000015,-0.12762
 499,-0.11993918,0.00010361,-0.00002548,0.00001733,-0.00000013,0.012013
 13,0.01451284,-0.00001311,-0.00000552,0.00000826,0.00000013,0.00049070
 ,0.00023529,-0.00000039,-0.00005548,0.00000601,-0.00000002,0.00043725,
 0.00069418,-0.00000026,-0.00002881,0.00000667,0.,0.13206065,-0.0000719
 9,-0.00007221,-0.00000013,-0.00021273,0.00002901,0.00000034,0.00020496
 ,0.00006199,-0.00000003,0.00084147,0.00176037,0.00000554,0.00007805,0.
 00000995,-0.00000036,0.00126579,0.00042758,-0.00000099,0.00002287,0.00
 003697,0.00000024,-0.00002967,-0.00024995,-0.00000110,-0.00011381,0.00
 003270,0.00000022,0.00287521,0.00384227,0.00000026,-0.00006231,0.00004
 498,-0.00000004,0.00373473,-0.00381588,0.00000948,0.00006286,0.0000056
 2,-0.00000015,-0.12051389,-0.26963997,0.00019890,-0.00003153,-0.000068
 89,0.00000002,-0.01628549,-0.01673497,0.00001872,0.00000801,-0.0000289
 1,0.00000006,-0.00029874,0.00074711,-0.00000433,-0.00000011,0.00000043
 ,0.00000007,-0.00083569,-0.00075406,0.00000007,-0.00000667,0.00000644,
 0.00000002,0.12900173,0.28378997,0.,-0.00000018,-0.00005568,0.00000070
 ,0.00000093,0.00020341,-0.00000028,-0.00000046,0.00013001,-0.00000207,
 0.00000306,0.00795381,-0.00000052,0.00000027,-0.00046194,-0.00000140,-
 0.00000141,-0.00106216,-0.00000027,0.00000003,0.00029646,-0.00000039,-
 0.00000005,-0.00120158,0.00000047,-0.00000051,0.00005940,0.00000043,0.
 00000112,0.00420334,0.00000023,-0.00000023,-0.00004279,-0.00000295,0.0
 0001097,0.00731190,-0.00000014,0.00000013,-0.00004967,0.00010172,0.000
 20081,-0.03997187,0.00000005,0.00000021,0.00002230,0.00001532,0.000016
 14,0.00460652,0.00000025,0.00000014,0.00001322,0.00000009,-0.00000453,
 -0.00425019,-0.00000001,0.00000002,0.00005754,0.00000077,0.00000022,-0
 .00029626,0.00000001,-0.00000002,0.00002137,-0.00011182,-0.00022297,0.
 02626378,0.00014793,0.00037585,0.00000035,-0.00030644,0.00012034,-0.00
 000085,0.00075524,-0.00004347,-0.00000054,-0.00004215,0.00000687,-0.00
 000009,0.00052662,0.00314970,0.00000390,-0.00007186,-0.00002419,-0.000
 00021,-0.00069638,-0.00098914,-0.00000077,0.00038535,0.00025769,0.0000
 0088,0.00066221,-0.00301771,-0.00000092,-0.00003646,-0.00008294,0.0000
 0016,-0.01071799,-0.00295641,0.00000110,0.00001275,0.00000741,0.000000
 05,-0.01028984,0.00325904,0.00000476,0.00000098,0.00000141,0.00000005,
 -0.33976807,-0.00149765,0.00005502,0.00000867,-0.00000884,-0.00000002,
 -0.00059894,0.00018935,0.00000027,0.00001504,0.00004003,-0.00000010,0.
 00055448,0.00023824,-0.00000076,0.00000500,0.00000611,-0.00000002,0.00
 051783,-0.00037022,-0.00000089,-0.00000491,-0.00000327,0.,0.35895147,-
 0.00030912,-0.00024523,-0.00000031,0.00038379,-0.00009945,0.00000109,0
 .00005304,-0.00162683,-0.00000061,0.00001060,0.00015500,0.00000072,0.0
 0261063,-0.00452960,-0.00000878,0.00007904,0.00003594,0.00000027,0.001
 57813,0.00104434,0.00000072,-0.00034524,-0.00050709,-0.00000091,-0.002
 57214,-0.00446680,-0.00000691,-0.00006100,-0.00010354,0.00000029,0.027
 91010,0.00514519,-0.00000460,-0.00009903,0.00001174,-0.00000012,-0.027
 77991,0.00509885,0.00000646,0.00007655,0.00004505,0.00000004,-0.001494
 42,-0.05900419,-0.00001046,-0.00001595,0.00008185,-0.00000010,-0.00135
 052,0.00001433,0.00000035,0.00003214,0.00008129,-0.00000027,-0.0004835
 7,0.00064884,0.00000291,-0.00001257,-0.00000889,0.00000001,0.00044523,
 0.00057179,0.00000256,0.00000299,-0.00000234,0.,0.00134152,0.05764765,
 -0.00000005,-0.00000050,0.00013076,0.00000029,0.00000029,-0.00005966,-
 0.00000169,-0.00000131,-0.00105324,0.00000096,0.00000041,-0.00125716,0
 .00000444,-0.00000552,0.00799796,-0.00000031,0.00000090,0.00010068,0.0
 0000135,0.00000018,0.00015171,-0.00000041,-0.00000150,-0.00023435,-0.0
 0000034,-0.00000714,0.00737115,0.00000045,-0.00000053,0.00001194,0.000
 01718,0.00000249,0.00364569,0.00000020,0.00000032,0.00013784,-0.000014
 33,0.00000022,0.00336875,-0.00000032,0.00000030,-0.00000479,0.00005646
 ,-0.00001192,-0.03834309,0.00000006,-0.00000034,-0.00003440,-0.0000009
 2,-0.00000018,-0.00001858,0.00000005,0.00000024,0.00011886,-0.00000119
 ,0.00000289,-0.00423820,-0.00000002,-0.00000002,0.00000425,-0.00000053
 ,0.00000305,-0.00374686,0.00000003,0.,-0.00000407,-0.00006135,0.000017
 68,0.02595617,-0.00030643,-0.00012035,-0.00000040,0.00014794,-0.000375
 84,0.00000079,-0.00004215,-0.00000687,0.00000007,0.00075523,0.00004355
 ,-0.00000021,-0.00007186,0.00002418,-0.00000006,0.00052682,-0.00314951
 ,0.00000297,0.00038535,-0.00025766,0.00000045,-0.00069635,0.00098908,-
 0.00000144,-0.00003646,0.00008295,0.00000018,0.00066201,0.00301788,-0.
 00000273,0.00001275,-0.00000741,0.00000004,-0.01071706,0.00295586,-0.0
 0000238,0.00000098,-0.00000142,0.00000005,-0.01029067,-0.00325962,0.00
 000278,0.00000867,0.00000884,-0.00000003,-0.33976940,0.00148759,-0.000
 00429,0.00001504,-0.00004003,-0.00000012,-0.00059898,-0.00018938,0.000
 00019,0.00000500,-0.00000611,0.,0.00055447,-0.00023824,0.00000016,-0.0
 0000491,0.00000327,0.00000001,0.00051783,0.00037022,-0.00000021,-0.000
 01052,-0.00000028,-0.00000001,0.35895270,-0.00038379,-0.00009947,-0.00
 000050,0.00030913,-0.00024524,0.00000079,-0.00001061,0.00015500,-0.000
 00099,-0.00005295,-0.00162683,0.00000072,-0.00007905,0.00003593,-0.000
 00008,-0.00261045,-0.00452980,0.00001088,0.00034527,-0.00050708,0.0000
 0022,-0.00157818,0.00104432,-0.00000173,0.00006101,-0.00010353,-0.0000
 0031,0.00257232,-0.00446659,0.00001013,0.00009903,0.00001175,0.0000001
 1,-0.02791066,0.00514428,-0.00000136,-0.00007656,0.00004505,-0.0000000
 2,0.02777931,0.00509977,-0.00000118,0.00001595,0.00008185,0.00000007,0
 .00148440,-0.05900393,0.00001585,-0.00003214,0.00008129,0.00000029,0.0
 0135050,0.00001438,-0.00000014,0.00001257,-0.00000889,0.,0.00048357,0.
 00064885,-0.00000384,-0.00000299,-0.00000234,0.,-0.00044524,0.00057179
 ,-0.00000367,0.00000028,0.00001208,0.,-0.00133071,0.05764736,0.0000004
 4,0.00000005,-0.00005966,-0.00000004,0.00000081,0.00013076,0.00000044,
 -0.00000069,-0.00125717,-0.00000093,0.00000121,-0.00105323,-0.00000079
 ,-0.00000052,0.00010069,0.00000361,0.00000739,0.00799795,-0.00000018,0
 .00000116,-0.00023437,0.00000181,-0.00000002,0.00015173,0.00000063,0.0
 0000035,0.00001194,-0.00000179,0.00001079,0.00737114,0.00000055,-0.000
 00046,0.00013785,0.00002071,-0.00000237,0.00364568,-0.00000058,-0.0000
 0047,-0.00000479,-0.00002387,-0.00000099,0.00336873,0.,0.00000065,-0.0
 0003440,-0.00000290,0.00001636,-0.03834290,0.00000009,-0.00000026,0.00
 011886,-0.00000148,0.00000007,-0.00001858,-0.00000003,0.00000003,0.000
 00425,-0.00000038,-0.00000405,-0.00423819,0.00000003,0.,-0.00000407,0.
 00000048,-0.00000381,-0.00374686,0.,0.,-0.00000135,0.00000420,-0.00002
 525,0.02595601\\0.00003388,0.00005353,-0.00005700,-0.00003424,0.000053
 90,0.00000098,-0.00006113,0.00008118,-0.00000287,0.00006164,0.00008096
 ,0.00000240,-0.00007213,-0.00006895,-0.00005061,0.00007108,-0.00006891
 ,0.00000607,0.00006291,-0.00009056,0.00015560,-0.00006195,-0.00009072,
 -0.00005220,0.00003151,-0.00000640,0.00000469,-0.00003168,-0.00000615,
 -0.00000069,0.00002694,0.00006347,-0.00000718,-0.00002634,0.00006300,-
 0.00000174,0.00000667,-0.00003501,-0.00000040,-0.00000638,-0.00003531,
 0.00000019,-0.00001561,0.00002156,0.00000312,0.00001461,0.00002179,-0.
 00000070,0.00001390,-0.00000982,0.00000035,-0.00001387,-0.00000995,-0.
 00000140,0.00001611,-0.00001072,0.00000075,-0.00001625,-0.00001063,0.0
 0000080,-0.00000707,0.00000641,-0.00000107,0.00000711,0.00000653,-0.00
 000012,-0.00000832,-0.00000462,0.00000063,0.00000863,-0.00000458,0.000
 00039\\\@


 Mondays are the potholes in the road of life.
                                -- Tom Wilson
 Job cpu time:       0 days  5 hours 46 minutes 42.0 seconds.
 Elapsed time:       0 days  0 hours 21 minutes 45.7 seconds.
 File lengths (MBytes):  RWF=    359 Int=      0 D2E=      0 Chk=     14 Scr=      1
 Normal termination of Gaussian 16 at Sun Sep 21 09:33:54 2025.
