 Entering Gaussian System, Link 0=g16
 Input=PLDE0144.gjf
 Output=PLDE0144.log
 Initial command:
 /usr/local/g16/l1.exe "/dados_01/scratch/Gau-2185382.inp" -scrdir="/dados_01/scratch/"
 Entering Link 1 = /usr/local/g16/l1.exe PID=   2185383.
  
 Copyright (c) 1988-2017, Gaussian, Inc.  All Rights Reserved.
  
 This is part of the Gaussian(R) 16 program.  It is based on
 the Gaussian(R) 09 system (copyright 2009, Gaussian, Inc.),
 the Gaussian(R) 03 system (copyright 2003, Gaussian, Inc.),
 the Gaussian(R) 98 system (copyright 1998, Gaussian, Inc.),
 the Gaussian(R) 94 system (copyright 1995, Gaussian, Inc.),
 the Gaussian 92(TM) system (copyright 1992, Gaussian, Inc.),
 the Gaussian 90(TM) system (copyright 1990, Gaussian, Inc.),
 the Gaussian 88(TM) system (copyright 1988, Gaussian, Inc.),
 the Gaussian 86(TM) system (copyright 1986, Carnegie Mellon
 University), and the Gaussian 82(TM) system (copyright 1983,
 Carnegie Mellon University). Gaussian is a federally registered
 trademark of Gaussian, Inc.
  
 This software contains proprietary and confidential information,
 including trade secrets, belonging to Gaussian, Inc.
  
 This software is provided under written license and may be
 used, copied, transmitted, or stored only in accord with that
 written license.
  
 The following legend is applicable only to US Government
 contracts under FAR:
  
                    RESTRICTED RIGHTS LEGEND
  
 Use, reproduction and disclosure by the US Government is
 subject to restrictions as set forth in subparagraphs (a)
 and (c) of the Commercial Computer Software - Restricted
 Rights clause in FAR 52.227-19.
  
 Gaussian, Inc.
 340 Quinnipiac St., Bldg. 40, Wallingford CT 06492
  
  
 ---------------------------------------------------------------
 Warning -- This program may not be used in any manner that
 competes with the business of Gaussian, Inc. or will provide
 assistance to any competitor of Gaussian, Inc.  The licensee
 of this program is prohibited from giving any competitor of
 Gaussian, Inc. access to this program.  By using this program,
 the user acknowledges that Gaussian, Inc. is engaged in the
 business of creating and licensing software in the field of
 computational chemistry and represents and warrants to the
 licensee that it is not a competitor of Gaussian, Inc. and that
 it will not use this program in any manner prohibited above.
 ---------------------------------------------------------------
  

 Cite this work as:
 Gaussian 16, Revision B.01,
 M. J. Frisch, G. W. Trucks, H. B. Schlegel, G. E. Scuseria, 
 M. A. Robb, J. R. Cheeseman, G. Scalmani, V. Barone, 
 G. A. Petersson, H. Nakatsuji, X. Li, M. Caricato, A. V. Marenich, 
 J. Bloino, B. G. Janesko, R. Gomperts, B. Mennucci, H. P. Hratchian, 
 J. V. Ortiz, A. F. Izmaylov, J. L. Sonnenberg, D. Williams-Young, 
 F. Ding, F. Lipparini, F. Egidi, J. Goings, B. Peng, A. Petrone, 
 T. Henderson, D. Ranasinghe, V. G. Zakrzewski, J. Gao, N. Rega, 
 G. Zheng, W. Liang, M. Hada, M. Ehara, K. Toyota, R. Fukuda, 
 J. Hasegawa, M. Ishida, T. Nakajima, Y. Honda, O. Kitao, H. Nakai, 
 T. Vreven, K. Throssell, J. A. Montgomery, Jr., J. E. Peralta, 
 F. Ogliaro, M. J. Bearpark, J. J. Heyd, E. N. Brothers, K. N. Kudin, 
 V. N. Staroverov, T. A. Keith, R. Kobayashi, J. Normand, 
 K. Raghavachari, A. P. Rendell, J. C. Burant, S. S. Iyengar, 
 J. Tomasi, M. Cossi, J. M. Millam, M. Klene, C. Adamo, R. Cammi, 
 J. W. Ochterski, R. L. Martin, K. Morokuma, O. Farkas, 
 J. B. Foresman, and D. J. Fox, Gaussian, Inc., Wallingford CT, 2016.
 
 ******************************************
 Gaussian 16:  ES64L-G16RevB.01 20-Dec-2017
                21-Sep-2025 
 ******************************************
 %nprocs=16
 Will use up to   16 processors via shared memory.
 %mem=40GB
 %chk=PLDE0144.chk
 ----------------------------------------------------------------------
 # opt freq=noraman M08HX/6-311++G** scf=xqc Empiricaldispersion=pfd In
 t(Grid=ultraFine)
 ----------------------------------------------------------------------
 1/18=20,19=15,26=4,38=1/1,3;
 2/9=110,12=2,17=6,18=5,40=1/2;
 3/5=4,6=6,7=1111,11=2,25=1,30=1,71=1,74=-74,75=-5,124=11/1,2,3;
 4//1;
 5/5=2,8=3,13=1,38=5/2,8;
 6/7=2,8=2,9=2,10=2,28=1/1;
 7//1,2,3,16;
 1/18=20,19=15,26=4/3(2);
 2/9=110/2;
 99//99;
 2/9=110/2;
 3/5=4,6=6,7=1111,11=2,25=1,30=1,71=1,74=-74,75=-5,124=11/1,2,3;
 4/5=5,16=3,69=1/1;
 5/5=2,8=3,13=1,38=5/2,8;
 7//1,2,3,16;
 1/18=20,19=15,26=4/3(-5);
 2/9=110/2;
 6/7=2,8=2,9=2,10=2,19=2,28=1/1;
 99/9=1/99;
 --------
 PLDE0144
 --------
 Symbolic Z-matrix:
 Charge =  0 Multiplicity = 1
 O                     0.5681   -1.244    -0.1034 
 O                    -1.3614    0.1301   -0.1027 
 O                     0.7933    1.1139   -0.1034 
 C                    -0.7836   -1.1003    0.3427 
 C                     1.3446   -0.1285    0.3425 
 C                    -0.561     1.2289    0.3426 
 C                    -1.5972   -2.2423   -0.2396 
 C                     2.7407   -0.2619   -0.2392 
 C                    -1.1435    2.5042   -0.2395 
 H                    -0.8199   -1.1519    1.4387 
 H                     1.4072   -0.1345    1.4385 
 H                    -0.5869    1.2864    1.4385 
 H                    -2.6451   -2.1744    0.0692 
 H                    -1.5755   -2.2114   -1.3349 
 H                    -1.1905   -3.2105    0.0688 
 H                     2.7036   -0.2583   -1.3345 
 H                     3.3756    0.5744    0.0696 
 H                     3.2058   -1.2033    0.0696 
 H                    -1.1282    2.4699   -1.3348 
 H                    -2.1852    2.6361    0.0694 
 H                    -0.5607    3.3778    0.0688 
 

 GradGradGradGradGradGradGradGradGradGradGradGradGradGradGradGradGradGrad
 Berny optimization.
 Initialization pass.
                           ----------------------------
                           !    Initial Parameters    !
                           ! (Angstroms and Degrees)  !
 --------------------------                            --------------------------
 ! Name  Definition              Value          Derivative Info.                !
 --------------------------------------------------------------------------------
 ! R1    R(1,4)                  1.4306         estimate D2E/DX2                !
 ! R2    R(1,5)                  1.4304         estimate D2E/DX2                !
 ! R3    R(2,4)                  1.4304         estimate D2E/DX2                !
 ! R4    R(2,6)                  1.4305         estimate D2E/DX2                !
 ! R5    R(3,5)                  1.4305         estimate D2E/DX2                !
 ! R6    R(3,6)                  1.4305         estimate D2E/DX2                !
 ! R7    R(4,7)                  1.5183         estimate D2E/DX2                !
 ! R8    R(4,10)                 1.0978         estimate D2E/DX2                !
 ! R9    R(5,8)                  1.5183         estimate D2E/DX2                !
 ! R10   R(5,11)                 1.0978         estimate D2E/DX2                !
 ! R11   R(6,9)                  1.5181         estimate D2E/DX2                !
 ! R12   R(6,12)                 1.0977         estimate D2E/DX2                !
 ! R13   R(7,13)                 1.0946         estimate D2E/DX2                !
 ! R14   R(7,14)                 1.096          estimate D2E/DX2                !
 ! R15   R(7,15)                 1.0945         estimate D2E/DX2                !
 ! R16   R(8,16)                 1.0959         estimate D2E/DX2                !
 ! R17   R(8,17)                 1.0945         estimate D2E/DX2                !
 ! R18   R(8,18)                 1.0945         estimate D2E/DX2                !
 ! R19   R(9,19)                 1.0959         estimate D2E/DX2                !
 ! R20   R(9,20)                 1.0945         estimate D2E/DX2                !
 ! R21   R(9,21)                 1.0945         estimate D2E/DX2                !
 ! A1    A(4,1,5)              109.716          estimate D2E/DX2                !
 ! A2    A(4,2,6)              109.7413         estimate D2E/DX2                !
 ! A3    A(5,3,6)              109.7248         estimate D2E/DX2                !
 ! A4    A(1,4,2)              111.7743         estimate D2E/DX2                !
 ! A5    A(1,4,7)              108.129          estimate D2E/DX2                !
 ! A6    A(1,4,10)             109.7442         estimate D2E/DX2                !
 ! A7    A(2,4,7)              108.126          estimate D2E/DX2                !
 ! A8    A(2,4,10)             109.7511         estimate D2E/DX2                !
 ! A9    A(7,4,10)             109.2578         estimate D2E/DX2                !
 ! A10   A(1,5,3)              111.7725         estimate D2E/DX2                !
 ! A11   A(1,5,8)              108.1318         estimate D2E/DX2                !
 ! A12   A(1,5,11)             109.7493         estimate D2E/DX2                !
 ! A13   A(3,5,8)              108.1349         estimate D2E/DX2                !
 ! A14   A(3,5,11)             109.7503         estimate D2E/DX2                !
 ! A15   A(8,5,11)             109.2433         estimate D2E/DX2                !
 ! A16   A(2,6,3)              111.7726         estimate D2E/DX2                !
 ! A17   A(2,6,9)              108.1333         estimate D2E/DX2                !
 ! A18   A(2,6,12)             109.7437         estimate D2E/DX2                !
 ! A19   A(3,6,9)              108.1352         estimate D2E/DX2                !
 ! A20   A(3,6,12)             109.744          estimate D2E/DX2                !
 ! A21   A(9,6,12)             109.254          estimate D2E/DX2                !
 ! A22   A(4,7,13)             110.9875         estimate D2E/DX2                !
 ! A23   A(4,7,14)             110.5779         estimate D2E/DX2                !
 ! A24   A(4,7,15)             110.9886         estimate D2E/DX2                !
 ! A25   A(13,7,14)            107.4073         estimate D2E/DX2                !
 ! A26   A(13,7,15)            109.3372         estimate D2E/DX2                !
 ! A27   A(14,7,15)            107.4089         estimate D2E/DX2                !
 ! A28   A(5,8,16)             110.5782         estimate D2E/DX2                !
 ! A29   A(5,8,17)             110.9882         estimate D2E/DX2                !
 ! A30   A(5,8,18)             110.9909         estimate D2E/DX2                !
 ! A31   A(16,8,17)            107.4043         estimate D2E/DX2                !
 ! A32   A(16,8,18)            107.4088         estimate D2E/DX2                !
 ! A33   A(17,8,18)            109.3368         estimate D2E/DX2                !
 ! A34   A(6,9,19)             110.5836         estimate D2E/DX2                !
 ! A35   A(6,9,20)             110.9907         estimate D2E/DX2                !
 ! A36   A(6,9,21)             110.9902         estimate D2E/DX2                !
 ! A37   A(19,9,20)            107.4047         estimate D2E/DX2                !
 ! A38   A(19,9,21)            107.4017         estimate D2E/DX2                !
 ! A39   A(20,9,21)            109.3361         estimate D2E/DX2                !
 ! D1    D(5,1,4,2)             56.7289         estimate D2E/DX2                !
 ! D2    D(5,1,4,7)            175.6297         estimate D2E/DX2                !
 ! D3    D(5,1,4,10)           -65.2766         estimate D2E/DX2                !
 ! D4    D(4,1,5,3)            -56.7525         estimate D2E/DX2                !
 ! D5    D(4,1,5,8)           -175.6649         estimate D2E/DX2                !
 ! D6    D(4,1,5,11)            65.2542         estimate D2E/DX2                !
 ! D7    D(6,2,4,1)            -56.7121         estimate D2E/DX2                !
 ! D8    D(6,2,4,7)           -175.6147         estimate D2E/DX2                !
 ! D9    D(6,2,4,10)            65.2894         estimate D2E/DX2                !
 ! D10   D(4,2,6,3)             56.7086         estimate D2E/DX2                !
 ! D11   D(4,2,6,9)            175.6224         estimate D2E/DX2                !
 ! D12   D(4,2,6,12)           -65.2863         estimate D2E/DX2                !
 ! D13   D(6,3,5,1)             56.755          estimate D2E/DX2                !
 ! D14   D(6,3,5,8)            175.6656         estimate D2E/DX2                !
 ! D15   D(6,3,5,11)           -65.2512         estimate D2E/DX2                !
 ! D16   D(5,3,6,2)            -56.7231         estimate D2E/DX2                !
 ! D17   D(5,3,6,9)           -175.6358         estimate D2E/DX2                !
 ! D18   D(5,3,6,12)            65.2716         estimate D2E/DX2                !
 ! D19   D(1,4,7,13)          -179.6884         estimate D2E/DX2                !
 ! D20   D(1,4,7,14)           -60.5922         estimate D2E/DX2                !
 ! D21   D(1,4,7,15)            58.5069         estimate D2E/DX2                !
 ! D22   D(2,4,7,13)           -58.4976         estimate D2E/DX2                !
 ! D23   D(2,4,7,14)            60.5986         estimate D2E/DX2                !
 ! D24   D(2,4,7,15)           179.6977         estimate D2E/DX2                !
 ! D25   D(10,4,7,13)           60.9102         estimate D2E/DX2                !
 ! D26   D(10,4,7,14)         -179.9935         estimate D2E/DX2                !
 ! D27   D(10,4,7,15)          -60.8945         estimate D2E/DX2                !
 ! D28   D(1,5,8,16)            60.6012         estimate D2E/DX2                !
 ! D29   D(1,5,8,17)           179.6943         estimate D2E/DX2                !
 ! D30   D(1,5,8,18)           -58.4994         estimate D2E/DX2                !
 ! D31   D(3,5,8,16)           -60.5941         estimate D2E/DX2                !
 ! D32   D(3,5,8,17)            58.499          estimate D2E/DX2                !
 ! D33   D(3,5,8,18)          -179.6947         estimate D2E/DX2                !
 ! D34   D(11,5,8,16)         -179.998          estimate D2E/DX2                !
 ! D35   D(11,5,8,17)          -60.9048         estimate D2E/DX2                !
 ! D36   D(11,5,8,18)           60.9014         estimate D2E/DX2                !
 ! D37   D(2,6,9,19)           -60.5987         estimate D2E/DX2                !
 ! D38   D(2,6,9,20)            58.5001         estimate D2E/DX2                !
 ! D39   D(2,6,9,21)          -179.6933         estimate D2E/DX2                !
 ! D40   D(3,6,9,19)            60.5979         estimate D2E/DX2                !
 ! D41   D(3,6,9,20)           179.6966         estimate D2E/DX2                !
 ! D42   D(3,6,9,21)           -58.4968         estimate D2E/DX2                !
 ! D43   D(12,6,9,19)         -179.9996         estimate D2E/DX2                !
 ! D44   D(12,6,9,20)          -60.9009         estimate D2E/DX2                !
 ! D45   D(12,6,9,21)           60.9057         estimate D2E/DX2                !
 --------------------------------------------------------------------------------
 Trust Radius=3.00D-01 FncErr=1.00D-07 GrdErr=1.00D-06 EigMax=2.50D+02 EigMin=1.00D-04
 Number of steps in this run=    115 maximum allowed number of steps=    126.
 GradGradGradGradGradGradGradGradGradGradGradGradGradGradGradGradGradGrad

                          Input orientation:                          
 ---------------------------------------------------------------------
 Center     Atomic      Atomic             Coordinates (Angstroms)
 Number     Number       Type             X           Y           Z
 ---------------------------------------------------------------------
      1          8           0        0.568100   -1.244000   -0.103400
      2          8           0       -1.361400    0.130100   -0.102700
      3          8           0        0.793300    1.113900   -0.103400
      4          6           0       -0.783600   -1.100300    0.342700
      5          6           0        1.344600   -0.128500    0.342500
      6          6           0       -0.561000    1.228900    0.342600
      7          6           0       -1.597200   -2.242300   -0.239600
      8          6           0        2.740700   -0.261900   -0.239200
      9          6           0       -1.143500    2.504200   -0.239500
     10          1           0       -0.819900   -1.151900    1.438700
     11          1           0        1.407200   -0.134500    1.438500
     12          1           0       -0.586900    1.286400    1.438500
     13          1           0       -2.645100   -2.174400    0.069200
     14          1           0       -1.575500   -2.211400   -1.334900
     15          1           0       -1.190500   -3.210500    0.068800
     16          1           0        2.703600   -0.258300   -1.334500
     17          1           0        3.375600    0.574400    0.069600
     18          1           0        3.205800   -1.203300    0.069600
     19          1           0       -1.128200    2.469900   -1.334800
     20          1           0       -2.185200    2.636100    0.069400
     21          1           0       -0.560700    3.377800    0.068800
 ---------------------------------------------------------------------
                    Distance matrix (angstroms):
                    1          2          3          4          5
     1  O    0.000000
     2  O    2.368781   0.000000
     3  O    2.368630   2.368669   0.000000
     4  C    1.430646   1.430426   2.754687   0.000000
     5  C    1.430426   2.754544   1.430495   2.339579   0.000000
     6  C    2.754817   1.430487   1.430479   2.339813   2.339625
     7  C    2.388237   2.388017   4.122756   1.518283   3.668948
     8  C    2.388127   4.123047   2.388228   3.669089   1.518310
     9  C    4.122754   2.388000   2.388023   3.668911   3.668852
    10  H    2.076800   2.076695   3.180304   1.097814   2.633261
    11  H    2.076664   3.179694   2.076736   2.633088   1.097803
    12  H    3.180315   2.076578   2.076575   2.633592   2.633221
    13  H    3.349640   2.643512   4.760809   2.166489   4.492005
    14  H    2.654708   2.654577   4.264437   2.162404   3.959688
    15  H    2.643757   3.349362   4.760835   2.166456   4.000046
    16  H    2.654726   4.265256   2.654767   3.960117   2.162419
    17  H    3.349412   4.760909   2.643721   4.492009   2.166450
    18  H    2.643681   4.760983   3.349552   4.000063   2.166503
    19  H    4.264602   2.654641   2.654665   3.959682   3.959767
    20  H    4.760850   2.643539   3.349390   3.999983   4.491891
    21  H    4.760764   3.349341   2.643523   4.492002   3.999902
                    6          7          8          9         10
     6  C    0.000000
     7  C    3.669046   0.000000
     8  C    3.669087   4.768581   0.000000
     9  C    1.518070   4.768134   4.768471   0.000000
    10  H    2.633756   2.147058   4.035507   4.035857   0.000000
    11  H    2.633186   4.035500   2.146889   4.035405   2.448485
    12  H    1.097713   4.035895   4.035447   2.146747   2.449407
    13  H    4.000084   1.094560   5.723601   4.923352   2.500478
    14  H    3.959657   1.095951   4.861141   4.860392   3.063712
    15  H    4.492161   1.094498   4.923763   5.723203   2.500361
    16  H    3.960056   4.861270   1.095934   4.861133   4.572112
    17  H    3.999965   5.723473   1.094465   4.923610   4.738857
    18  H    4.492094   4.923813   1.094490   5.723418   4.252451
    19  H    2.162283   4.860479   4.861220   1.095944   4.572175
    20  H    2.166305   4.923415   5.723472   1.094512   4.252995
    21  H    2.166273   5.723196   4.923568   1.094478   4.739408
                   11         12         13         14         15
    11  H    0.000000
    12  H    2.448549   0.000000
    13  H    4.738914   4.253035   0.000000
    14  H    4.571844   4.572055   1.765477   0.000000
    15  H    4.252752   4.739464   1.785879   1.765446   0.000000
    16  H    3.063578   4.571982   5.852385   4.703753   5.084167
    17  H    2.500205   4.252321   6.618514   5.852067   5.930829
    18  H    2.500237   4.738889   5.930941   5.084262   4.832836
    19  H    4.571908   3.063474   5.083476   4.702621   5.851574
    20  H    4.738776   2.500138   4.832434   5.083508   5.930612
    21  H    4.252642   2.500144   5.930569   5.851440   6.618334
                   16         17         18         19         20
    16  H    0.000000
    17  H    1.765353   0.000000
    18  H    1.765425   1.785791   0.000000
    19  H    4.703803   5.084238   5.852204   0.000000
    20  H    5.852252   5.930692   6.618449   1.765403   0.000000
    21  H    5.083909   4.832547   5.930683   1.765342   1.785811
                   21
    21  H    0.000000
 Stoichiometry    C6H12O3
 Framework group  C1[X(C6H12O3)]
 Deg. of freedom    57
 Full point group                 C1      NOp   1
 Largest Abelian subgroup         C1      NOp   1
 Largest concise Abelian subgroup C1      NOp   1
                         Standard orientation:                         
 ---------------------------------------------------------------------
 Center     Atomic      Atomic             Coordinates (Angstroms)
 Number     Number       Type             X           Y           Z
 ---------------------------------------------------------------------
      1          8           0        0.628053   -1.214846   -0.104899
      2          8           0       -1.366125    0.063580   -0.104199
      3          8           0        0.738065    1.151228   -0.104899
      4          6           0       -0.729044   -1.137196    0.341201
      5          6           0        1.349263   -0.062826    0.341001
      6          6           0       -0.620230    1.200085    0.341101
      7          6           0       -1.486018   -2.317493   -0.241099
      8          6           0        2.750205   -0.128024   -0.240699
      9          6           0       -1.264194    2.445479   -0.240999
     10          1           0       -0.762786   -1.190504    1.437201
     11          1           0        1.412081   -0.065768    1.437001
     12          1           0       -0.648902    1.256254    1.437001
     13          1           0       -2.535982   -2.300746    0.067701
     14          1           0       -1.465850   -2.285572   -1.336399
     15          1           0       -1.032613   -3.264720    0.067301
     16          1           0        2.712974   -0.126236   -1.335999
     17          1           0        3.343591    0.738226    0.068101
     18          1           0        3.260635   -1.045637    0.068101
     19          1           0       -1.247240    2.411965   -1.336299
     20          1           0       -2.311085    2.526451    0.067901
     21          1           0       -0.724664    3.346445    0.067301
 ---------------------------------------------------------------------
 Rotational constants (GHZ):           1.7907738           1.7905557           0.9580305
 Standard basis: 6-311++G(d,p) (5D, 7F)
 There are   291 symmetry adapted cartesian basis functions of A   symmetry.
 There are   282 symmetry adapted basis functions of A   symmetry.
   282 basis functions,   432 primitive gaussians,   291 cartesian basis functions
    36 alpha electrons       36 beta electrons
       nuclear repulsion energy       515.0411017379 Hartrees.
 NAtoms=   21 NActive=   21 NUniq=   21 SFac= 1.00D+00 NAtFMM=   60 NAOKFM=F Big=F
 Integral buffers will be    131072 words long.
 Raffenetti 2 integral format.
 Two-electron integral symmetry is turned on.
 R6APFD:  NTU= -4 IXU= 1 FactS= 1.050
 Nuclear repulsion after empirical dispersion term =      515.0258249890 Hartrees.
 One-electron integrals computed using PRISM.
 NBasis=   282 RedAO= T EigKep=  2.48D-05  NBF=   282
 NBsUse=   282 1.00D-06 EigRej= -1.00D+00 NBFU=   282
 ExpMin= 3.60D-02 ExpMax= 8.59D+03 ExpMxC= 1.30D+03 IAcc=3 IRadAn=         5 AccDes= 0.00D+00
 Harris functional with IExCor= 1009 and IRadAn=       5 diagonalized for initial guess.
 HarFok:  IExCor= 1009 AccDes= 0.00D+00 IRadAn=         5 IDoV= 1 UseB2=F ITyADJ=14
 ICtDFT=  3500011 ScaDFX=  1.000000  1.000000  1.000000  1.000000
 FoFCou: FMM=F IPFlag=           0 FMFlag=      100000 FMFlg1=           0
         NFxFlg=           0 DoJE=T BraDBF=F KetDBF=T FulRan=T
         wScrn=  0.000000 ICntrl=       500 IOpCl=  0 I1Cent=   200000004 NGrid=           0
         NMat0=    1 NMatS0=      1 NMatT0=    0 NMatD0=    1 NMtDS0=    0 NMtDT0=    0
 Petite list used in FoFCou.
 Requested convergence on RMS density matrix=1.00D-08 within  32 cycles.
 Requested convergence on MAX density matrix=1.00D-06.
 Requested convergence on             energy=1.00D-06.
 No special actions if energy rises.
 SCF Done:  E(RM08HX) =  -461.530040602     A.U. after   12 cycles
            NFock= 12  Conv=0.25D-08     -V/T= 2.0049
 QCSCF skips out because SCF is already converged.

 **********************************************************************

            Population analysis using the SCF Density.

 **********************************************************************

 Orbital symmetries:
       Occupied  (A) (A) (A) (A) (A) (A) (A) (A) (A) (A) (A) (A)
                 (A) (A) (A) (A) (A) (A) (A) (A) (A) (A) (A) (A)
                 (A) (A) (A) (A) (A) (A) (A) (A) (A) (A) (A) (A)
       Virtual   (A) (A) (A) (A) (A) (A) (A) (A) (A) (A) (A) (A)
                 (A) (A) (A) (A) (A) (A) (A) (A) (A) (A) (A) (A)
                 (A) (A) (A) (A) (A) (A) (A) (A) (A) (A) (A) (A)
                 (A) (A) (A) (A) (A) (A) (A) (A) (A) (A) (A) (A)
                 (A) (A) (A) (A) (A) (A) (A) (A) (A) (A) (A) (A)
                 (A) (A) (A) (A) (A) (A) (A) (A) (A) (A) (A) (A)
                 (A) (A) (A) (A) (A) (A) (A) (A) (A) (A) (A) (A)
                 (A) (A) (A) (A) (A) (A) (A) (A) (A) (A) (A) (A)
                 (A) (A) (A) (A) (A) (A) (A) (A) (A) (A) (A) (A)
                 (A) (A) (A) (A) (A) (A) (A) (A) (A) (A) (A) (A)
                 (A) (A) (A) (A) (A) (A) (A) (A) (A) (A) (A) (A)
                 (A) (A) (A) (A) (A) (A) (A) (A) (A) (A) (A) (A)
                 (A) (A) (A) (A) (A) (A) (A) (A) (A) (A) (A) (A)
                 (A) (A) (A) (A) (A) (A) (A) (A) (A) (A) (A) (A)
                 (A) (A) (A) (A) (A) (A) (A) (A) (A) (A) (A) (A)
                 (A) (A) (A) (A) (A) (A) (A) (A) (A) (A) (A) (A)
                 (A) (A) (A) (A) (A) (A) (A) (A) (A) (A) (A) (A)
                 (A) (A) (A) (A) (A) (A) (A) (A) (A) (A) (A) (A)
                 (A) (A) (A) (A) (A) (A) (A) (A) (A) (A) (A) (A)
                 (A) (A) (A) (A) (A) (A) (A) (A) (A) (A) (A) (A)
                 (A) (A) (A) (A) (A) (A)
 The electronic state is 1-A.
 Alpha  occ. eigenvalues --  -19.63092 -19.63091 -19.63090 -10.64243 -10.64241
 Alpha  occ. eigenvalues --  -10.64240 -10.52295 -10.52293 -10.52293  -1.23414
 Alpha  occ. eigenvalues --   -1.13992  -1.13989  -0.87733  -0.87727  -0.82265
 Alpha  occ. eigenvalues --   -0.71881  -0.71879  -0.69397  -0.62279  -0.58592
 Alpha  occ. eigenvalues --   -0.58590  -0.57596  -0.51839  -0.48908  -0.48907
 Alpha  occ. eigenvalues --   -0.46793  -0.46791  -0.45534  -0.45139  -0.44115
 Alpha  occ. eigenvalues --   -0.44114  -0.40335  -0.40328  -0.37653  -0.37652
 Alpha  occ. eigenvalues --   -0.35566
 Alpha virt. eigenvalues --   -0.02836  -0.01339  -0.01338  -0.01273   0.01004
 Alpha virt. eigenvalues --    0.01004   0.01767   0.01795   0.01796   0.03678
 Alpha virt. eigenvalues --    0.04704   0.04705   0.04748   0.06487   0.06488
 Alpha virt. eigenvalues --    0.07228   0.08023   0.08023   0.10194   0.10563
 Alpha virt. eigenvalues --    0.10564   0.10750   0.11159   0.11917   0.12108
 Alpha virt. eigenvalues --    0.12109   0.12952   0.12952   0.14731   0.14797
 Alpha virt. eigenvalues --    0.14798   0.15613   0.15613   0.16166   0.18022
 Alpha virt. eigenvalues --    0.18024   0.18907   0.19640   0.19643   0.22121
 Alpha virt. eigenvalues --    0.22122   0.22593   0.22744   0.23925   0.23926
 Alpha virt. eigenvalues --    0.27124   0.27302   0.27305   0.28182   0.28186
 Alpha virt. eigenvalues --    0.28926   0.29085   0.31349   0.32281   0.32281
 Alpha virt. eigenvalues --    0.32499   0.32501   0.32844   0.35001   0.35002
 Alpha virt. eigenvalues --    0.35073   0.35074   0.35246   0.38385   0.39026
 Alpha virt. eigenvalues --    0.42144   0.42147   0.44471   0.44473   0.46883
 Alpha virt. eigenvalues --    0.51027   0.51030   0.52335   0.52338   0.54136
 Alpha virt. eigenvalues --    0.55026   0.60139   0.60140   0.62994   0.64531
 Alpha virt. eigenvalues --    0.64533   0.64998   0.66018   0.66020   0.67369
 Alpha virt. eigenvalues --    0.68356   0.68357   0.72227   0.72357   0.72362
 Alpha virt. eigenvalues --    0.72564   0.74322   0.74325   0.77384   0.77385
 Alpha virt. eigenvalues --    0.80784   0.80977   0.80979   0.80996   0.90372
 Alpha virt. eigenvalues --    0.95584   0.95588   0.97338   1.01590   1.06852
 Alpha virt. eigenvalues --    1.06856   1.09937   1.12779   1.12782   1.21084
 Alpha virt. eigenvalues --    1.21084   1.23568   1.25839   1.27183   1.27187
 Alpha virt. eigenvalues --    1.30058   1.32883   1.32888   1.36026   1.36029
 Alpha virt. eigenvalues --    1.40538   1.42786   1.42790   1.48951   1.50070
 Alpha virt. eigenvalues --    1.50072   1.55925   1.57015   1.57021   1.59648
 Alpha virt. eigenvalues --    1.61043   1.61044   1.63183   1.63709   1.63713
 Alpha virt. eigenvalues --    1.66897   1.67317   1.67319   1.68770   1.69482
 Alpha virt. eigenvalues --    1.69488   1.73829   1.73831   1.76363   1.77562
 Alpha virt. eigenvalues --    1.79289   1.79298   1.82367   1.84244   1.84248
 Alpha virt. eigenvalues --    1.87001   1.91441   1.91442   1.94083   1.94189
 Alpha virt. eigenvalues --    1.94189   1.95971   2.04490   2.04495   2.04631
 Alpha virt. eigenvalues --    2.14240   2.14242   2.18947   2.18955   2.22876
 Alpha virt. eigenvalues --    2.30392   2.30397   2.34537   2.34757   2.39741
 Alpha virt. eigenvalues --    2.39750   2.48779   2.50469   2.51363   2.51368
 Alpha virt. eigenvalues --    2.53727   2.53729   2.56378   2.57649   2.57655
 Alpha virt. eigenvalues --    2.59958   2.59962   2.60037   2.62204   2.62219
 Alpha virt. eigenvalues --    2.62224   2.64058   2.64060   2.70879   2.77323
 Alpha virt. eigenvalues --    2.77331   2.79864   2.86282   2.86285   2.93867
 Alpha virt. eigenvalues --    2.95508   2.95510   2.98365   2.99456   3.00990
 Alpha virt. eigenvalues --    3.00999   3.14810   3.14817   3.15034   3.15222
 Alpha virt. eigenvalues --    3.27448   3.27455   3.35878   3.42920   3.42921
 Alpha virt. eigenvalues --    3.46367   3.47090   3.47107   3.81244   3.82756
 Alpha virt. eigenvalues --    3.82759   3.84148   3.84155   3.84605   3.99071
 Alpha virt. eigenvalues --    3.99080   4.01904   4.16570   4.21570   4.21584
 Alpha virt. eigenvalues --    4.25936   4.36024   4.36039   5.22398   5.24384
 Alpha virt. eigenvalues --    5.24386   5.42957   5.52783   5.52787   5.72725
 Alpha virt. eigenvalues --    5.72738   5.90609  23.80419  23.81021  23.81037
 Alpha virt. eigenvalues --   24.01580  24.02873  24.02881  49.96500  49.96502
 Alpha virt. eigenvalues --   49.97142
          Condensed to atoms (all electrons):
               1          2          3          4          5          6
     1  O    8.117672  -0.014535  -0.014541   0.124025   0.123878  -0.038873
     2  O   -0.014535   8.117957  -0.014567   0.123739  -0.038724   0.123910
     3  O   -0.014541  -0.014567   8.117722  -0.038818   0.123869   0.124204
     4  C    0.124025   0.123739  -0.038818   7.400301  -0.479920  -0.479948
     5  C    0.123878  -0.038724   0.123869  -0.479920   7.399779  -0.479379
     6  C   -0.038873   0.123910   0.124204  -0.479948  -0.479379   7.399578
     7  C   -0.109859  -0.109930   0.030268  -0.553083  -0.047838  -0.047365
     8  C   -0.109967   0.030253  -0.109953  -0.047706  -0.553378  -0.047788
     9  C    0.030290  -0.109949  -0.109979  -0.047475  -0.047801  -0.553827
    10  H   -0.067106  -0.067114  -0.001211   0.388682  -0.062571  -0.062678
    11  H   -0.067100  -0.001190  -0.067120  -0.062642   0.388705  -0.062539
    12  H   -0.001217  -0.067146  -0.067161  -0.062688  -0.062532   0.388957
    13  H    0.025328  -0.019250   0.000322  -0.077931  -0.019497   0.020412
    14  H   -0.016776  -0.016774  -0.003171   0.021578   0.013032   0.013046
    15  H   -0.019242   0.025341   0.000320  -0.077958   0.020428  -0.019486
    16  H   -0.016773  -0.003168  -0.016768   0.013071   0.021543   0.013068
    17  H    0.025331   0.000321  -0.019243  -0.019507  -0.077923   0.020414
    18  H   -0.019246   0.000320   0.025327   0.020429  -0.077905  -0.019501
    19  H   -0.003170  -0.016783  -0.016776   0.013048   0.013042   0.021644
    20  H    0.000322  -0.019255   0.025339   0.020433  -0.019515  -0.077950
    21  H    0.000321   0.025343  -0.019253  -0.019498   0.020432  -0.077991
               7          8          9         10         11         12
     1  O   -0.109859  -0.109967   0.030290  -0.067106  -0.067100  -0.001217
     2  O   -0.109930   0.030253  -0.109949  -0.067114  -0.001190  -0.067146
     3  O    0.030268  -0.109953  -0.109979  -0.001211  -0.067120  -0.067161
     4  C   -0.553083  -0.047706  -0.047475   0.388682  -0.062642  -0.062688
     5  C   -0.047838  -0.553378  -0.047801  -0.062571   0.388705  -0.062532
     6  C   -0.047365  -0.047788  -0.553827  -0.062678  -0.062539   0.388957
     7  C    6.663058  -0.042764  -0.042785  -0.137500   0.042132   0.042113
     8  C   -0.042764   6.664553  -0.042800   0.042149  -0.137691   0.042146
     9  C   -0.042785  -0.042800   6.664277   0.042155   0.042148  -0.137735
    10  H   -0.137500   0.042149   0.042155   0.660975   0.007895   0.007864
    11  H    0.042132  -0.137691   0.042148   0.007895   0.661116   0.007885
    12  H    0.042113   0.042146  -0.137735   0.007864   0.007885   0.661068
    13  H    0.433460  -0.002791   0.000969  -0.015065   0.000866   0.000103
    14  H    0.321531  -0.003374  -0.003369   0.006324  -0.001514  -0.001514
    15  H    0.433443   0.000971  -0.002793  -0.015050   0.000100   0.000865
    16  H   -0.003378   0.321506  -0.003375  -0.001511   0.006324  -0.001510
    17  H   -0.002785   0.433436   0.000978   0.000864  -0.015061   0.000099
    18  H    0.000974   0.433435  -0.002788   0.000097  -0.015061   0.000863
    19  H   -0.003370  -0.003375   0.321463  -0.001514  -0.001513   0.006336
    20  H    0.000974  -0.002790   0.433474   0.000103   0.000865  -0.015077
    21  H   -0.002792   0.000968   0.433506   0.000864   0.000101  -0.015062
              13         14         15         16         17         18
     1  O    0.025328  -0.016776  -0.019242  -0.016773   0.025331  -0.019246
     2  O   -0.019250  -0.016774   0.025341  -0.003168   0.000321   0.000320
     3  O    0.000322  -0.003171   0.000320  -0.016768  -0.019243   0.025327
     4  C   -0.077931   0.021578  -0.077958   0.013071  -0.019507   0.020429
     5  C   -0.019497   0.013032   0.020428   0.021543  -0.077923  -0.077905
     6  C    0.020412   0.013046  -0.019486   0.013068   0.020414  -0.019501
     7  C    0.433460   0.321531   0.433443  -0.003378  -0.002785   0.000974
     8  C   -0.002791  -0.003374   0.000971   0.321506   0.433436   0.433435
     9  C    0.000969  -0.003369  -0.002793  -0.003375   0.000978  -0.002788
    10  H   -0.015065   0.006324  -0.015050  -0.001511   0.000864   0.000097
    11  H    0.000866  -0.001514   0.000100   0.006324  -0.015061  -0.015061
    12  H    0.000103  -0.001514   0.000865  -0.001510   0.000099   0.000863
    13  H    0.504962  -0.033909  -0.035621  -0.000024   0.000247  -0.000297
    14  H   -0.033909   0.474777  -0.033909   0.000053  -0.000024   0.000603
    15  H   -0.035621  -0.033909   0.504934   0.000602  -0.000297  -0.000248
    16  H   -0.000024   0.000053   0.000602   0.474821  -0.033920  -0.033908
    17  H    0.000247  -0.000024  -0.000297  -0.033920   0.504964  -0.035631
    18  H   -0.000297   0.000603  -0.000248  -0.033908  -0.035631   0.504949
    19  H    0.000603   0.000053  -0.000024   0.000053   0.000603  -0.000024
    20  H   -0.000248   0.000604  -0.000298  -0.000024  -0.000298   0.000247
    21  H   -0.000297  -0.000024   0.000247   0.000602  -0.000248  -0.000297
              19         20         21
     1  O   -0.003170   0.000322   0.000321
     2  O   -0.016783  -0.019255   0.025343
     3  O   -0.016776   0.025339  -0.019253
     4  C    0.013048   0.020433  -0.019498
     5  C    0.013042  -0.019515   0.020432
     6  C    0.021644  -0.077950  -0.077991
     7  C   -0.003370   0.000974  -0.002792
     8  C   -0.003375  -0.002790   0.000968
     9  C    0.321463   0.433474   0.433506
    10  H   -0.001514   0.000103   0.000864
    11  H   -0.001513   0.000865   0.000101
    12  H    0.006336  -0.015077  -0.015062
    13  H    0.000603  -0.000248  -0.000297
    14  H    0.000053   0.000604  -0.000024
    15  H   -0.000024  -0.000298   0.000247
    16  H    0.000053  -0.000024   0.000602
    17  H    0.000603  -0.000298  -0.000248
    18  H   -0.000024   0.000247  -0.000297
    19  H    0.474784  -0.033913  -0.033916
    20  H   -0.033913   0.504948  -0.035619
    21  H   -0.033916  -0.035619   0.504920
 Mulliken charges:
               1
     1  O    0.051239
     2  O    0.051202
     3  O    0.051189
     4  C   -0.158131
     5  C   -0.157724
     6  C   -0.157908
     7  C   -0.864503
     8  C   -0.865039
     9  C   -0.864581
    10  H    0.273348
    11  H    0.273293
    12  H    0.273344
    13  H    0.217659
    14  H    0.262756
    15  H    0.217675
    16  H    0.262716
    17  H    0.217681
    18  H    0.217664
    19  H    0.262749
    20  H    0.217677
    21  H    0.217693
 Sum of Mulliken charges =  -0.00000
 Mulliken charges with hydrogens summed into heavy atoms:
               1
     1  O    0.051239
     2  O    0.051202
     3  O    0.051189
     4  C    0.115217
     5  C    0.115570
     6  C    0.115436
     7  C   -0.166414
     8  C   -0.166978
     9  C   -0.166461
 Electronic spatial extent (au):  <R**2>=           1291.5830
 Charge=             -0.0000 electrons
 Dipole moment (field-independent basis, Debye):
    X=             -0.0006    Y=              0.0004    Z=              1.9258  Tot=              1.9258
 Quadrupole moment (field-independent basis, Debye-Ang):
   XX=            -54.2420   YY=            -54.2401   ZZ=            -55.1982
   XY=             -0.0002   XZ=              0.0022   YZ=             -0.0004
 Traceless Quadrupole moment (field-independent basis, Debye-Ang):
   XX=              0.3181   YY=              0.3200   ZZ=             -0.6381
   XY=             -0.0002   XZ=              0.0022   YZ=             -0.0004
 Octapole moment (field-independent basis, Debye-Ang**2):
  XXX=             11.6759  YYY=              1.6460  ZZZ=             -1.3039  XYY=            -11.6794
  XXY=             -1.6392  XXZ=              0.8189  XZZ=             -0.0022  YZZ=              0.0001
  YYZ=              0.8215  XYZ=              0.0001
 Hexadecapole moment (field-independent basis, Debye-Ang**3):
 XXXX=           -785.8418 YYYY=           -785.7244 ZZZZ=           -123.4609 XXXY=             -0.0051
 XXXZ=             -4.2312 YYYX=             -0.0057 YYYZ=             -0.5993 ZZZX=             -0.0045
 ZZZY=             -0.0035 XXYY=           -261.9277 XXZZ=           -156.4160 YYZZ=           -156.4013
 XXYZ=              0.5926 YYXZ=              4.2282 ZZXY=             -0.0009
 N-N= 5.150258249890D+02 E-N=-2.108852758467D+03  KE= 4.592644460089D+02
 R6APFD:  NTU= -4 IXU= 1 FactS= 1.050
 Calling FoFJK, ICntrl=      2127 FMM=F ISym2X=0 I1Cent= 0 IOpClX= 0 NMat=1 NMatS=1 NMatT=0.
 ***** Axes restored to original set *****
 -------------------------------------------------------------------
 Center     Atomic                   Forces (Hartrees/Bohr)
 Number     Number              X              Y              Z
 -------------------------------------------------------------------
      1        8          -0.010189163    0.022154266    0.011219874
      2        8           0.024244179   -0.002314113    0.011121101
      3        8          -0.014133159   -0.019844026    0.011173765
      4        6          -0.004517312   -0.006445971   -0.018448729
      5        6           0.007929250   -0.000729708   -0.018440265
      6        6          -0.003269178    0.007090246   -0.018426361
      7        6           0.000186455    0.000321733   -0.004768557
      8        6          -0.000393800    0.000037225   -0.004804893
      9        6           0.000115710   -0.000275997   -0.004847066
     10        1           0.004244271    0.005946922    0.006633620
     11        1          -0.007297537    0.000699069    0.006648612
     12        1           0.003029259   -0.006646492    0.006702288
     13        1           0.000688070    0.001183070    0.002559571
     14        1           0.002058678    0.002894735    0.000266714
     15        1           0.000913582    0.001000963    0.002579432
     16        1          -0.003539717    0.000331887    0.000254062
     17        1          -0.001320630    0.000310939    0.002590097
     18        1          -0.001354409   -0.000035424    0.002570026
     19        1           0.001471301   -0.003240079    0.000257037
     20        1           0.000422971   -0.001290355    0.002577352
     21        1           0.000711178   -0.001148893    0.002582322
 -------------------------------------------------------------------
 Cartesian Forces:  Max     0.024244179 RMS     0.007781013

 GradGradGradGradGradGradGradGradGradGradGradGradGradGradGradGradGradGrad
 Berny optimization.
 FormGI is forming the generalized inverse of G from B-inverse, IUseBI=4.
 Internal  Forces:  Max     0.016288455 RMS     0.004744725
 Search for a local minimum.
 Step number   1 out of a maximum of  115
 All quantities printed in internal units (Hartrees-Bohrs-Radians)
 Mixed Optimization -- RFO/linear search
 Second derivative matrix not updated -- first step.
 ITU=  0
     Eigenvalues ---    0.00524   0.00524   0.00527   0.01879   0.01880
     Eigenvalues ---    0.02261   0.05196   0.05196   0.05582   0.05583
     Eigenvalues ---    0.05584   0.05727   0.05727   0.05728   0.05858
     Eigenvalues ---    0.05986   0.05987   0.06557   0.09498   0.09498
     Eigenvalues ---    0.09829   0.16000   0.16000   0.16000   0.16000
     Eigenvalues ---    0.16000   0.16000   0.16000   0.16000   0.16000
     Eigenvalues ---    0.16297   0.16299   0.17730   0.20374   0.20375
     Eigenvalues ---    0.20592   0.30530   0.30533   0.30553   0.33925
     Eigenvalues ---    0.33926   0.33936   0.34134   0.34135   0.34136
     Eigenvalues ---    0.34291   0.34296   0.34298   0.34299   0.34300
     Eigenvalues ---    0.34302   0.37116   0.37125   0.39120   0.40909
     Eigenvalues ---    0.40923   0.40924
 RFO step:  Lambda=-9.22749359D-03 EMin= 5.23739569D-03
 Linear search not attempted -- first point.
 Iteration  1 RMS(Cart)=  0.03300160 RMS(Int)=  0.00070877
 Iteration  2 RMS(Cart)=  0.00064308 RMS(Int)=  0.00031405
 Iteration  3 RMS(Cart)=  0.00000025 RMS(Int)=  0.00031405
 Variable       Old X    -DE/DX   Delta X   Delta X   Delta X     New X
                                 (Linear)    (Quad)   (Total)
    R1        2.70353  -0.01629   0.00000  -0.03895  -0.03895   2.66458
    R2        2.70311  -0.01622   0.00000  -0.03873  -0.03873   2.66438
    R3        2.70311  -0.01622   0.00000  -0.03877  -0.03877   2.66434
    R4        2.70323  -0.01623   0.00000  -0.03881  -0.03881   2.66442
    R5        2.70324  -0.01625   0.00000  -0.03882  -0.03882   2.66442
    R6        2.70321  -0.01623   0.00000  -0.03879  -0.03879   2.66442
    R7        2.86914  -0.00637   0.00000  -0.02024  -0.02024   2.84890
    R8        2.07457   0.00620   0.00000   0.01780   0.01780   2.09237
    R9        2.86919  -0.00637   0.00000  -0.02024  -0.02024   2.84895
   R10        2.07455   0.00622   0.00000   0.01784   0.01784   2.09239
   R11        2.86874  -0.00627   0.00000  -0.01992  -0.01992   2.84882
   R12        2.07438   0.00627   0.00000   0.01799   0.01799   2.09237
   R13        2.06842   0.00014   0.00000   0.00039   0.00039   2.06881
   R14        2.07105  -0.00014   0.00000  -0.00041  -0.00041   2.07064
   R15        2.06830   0.00018   0.00000   0.00051   0.00051   2.06881
   R16        2.07102  -0.00013   0.00000  -0.00038  -0.00038   2.07064
   R17        2.06824   0.00020   0.00000   0.00057   0.00057   2.06881
   R18        2.06829   0.00018   0.00000   0.00052   0.00052   2.06880
   R19        2.07103  -0.00014   0.00000  -0.00039  -0.00039   2.07064
   R20        2.06833   0.00017   0.00000   0.00048   0.00048   2.06880
   R21        2.06826   0.00019   0.00000   0.00055   0.00055   2.06881
    A1        1.91491   0.00448   0.00000   0.01822   0.01824   1.93315
    A2        1.91535   0.00444   0.00000   0.01795   0.01797   1.93332
    A3        1.91506   0.00446   0.00000   0.01819   0.01821   1.93327
    A4        1.95083  -0.00302   0.00000  -0.02467  -0.02493   1.92590
    A5        1.88721   0.00165   0.00000   0.01079   0.01080   1.89801
    A6        1.91540  -0.00238   0.00000  -0.02375  -0.02477   1.89063
    A7        1.88716   0.00162   0.00000   0.01064   0.01066   1.89781
    A8        1.91552  -0.00237   0.00000  -0.02371  -0.02472   1.89079
    A9        1.90691   0.00484   0.00000   0.05396   0.05396   1.96087
   A10        1.95080  -0.00302   0.00000  -0.02471  -0.02496   1.92584
   A11        1.88726   0.00165   0.00000   0.01073   0.01074   1.89800
   A12        1.91549  -0.00239   0.00000  -0.02382  -0.02484   1.89064
   A13        1.88731   0.00162   0.00000   0.01064   0.01066   1.89797
   A14        1.91550  -0.00239   0.00000  -0.02380  -0.02482   1.89069
   A15        1.90666   0.00487   0.00000   0.05423   0.05423   1.96089
   A16        1.95080  -0.00302   0.00000  -0.02475  -0.02501   1.92579
   A17        1.88728   0.00165   0.00000   0.01077   0.01078   1.89806
   A18        1.91539  -0.00238   0.00000  -0.02370  -0.02472   1.89067
   A19        1.88732   0.00161   0.00000   0.01057   0.01059   1.89790
   A20        1.91539  -0.00237   0.00000  -0.02366  -0.02467   1.89072
   A21        1.90684   0.00485   0.00000   0.05403   0.05403   1.96087
   A22        1.93710  -0.00233   0.00000  -0.01534  -0.01551   1.92158
   A23        1.92995  -0.00371   0.00000  -0.01880  -0.01889   1.91106
   A24        1.93712  -0.00233   0.00000  -0.01534  -0.01551   1.92160
   A25        1.87461   0.00353   0.00000   0.02384   0.02375   1.89836
   A26        1.90829   0.00172   0.00000   0.00438   0.00414   1.91243
   A27        1.87464   0.00353   0.00000   0.02392   0.02383   1.89847
   A28        1.92995  -0.00371   0.00000  -0.01881  -0.01890   1.91106
   A29        1.93711  -0.00234   0.00000  -0.01543  -0.01560   1.92151
   A30        1.93716  -0.00232   0.00000  -0.01533  -0.01550   1.92166
   A31        1.87456   0.00354   0.00000   0.02396   0.02387   1.89843
   A32        1.87464   0.00353   0.00000   0.02384   0.02375   1.89839
   A33        1.90829   0.00173   0.00000   0.00443   0.00419   1.91248
   A34        1.93005  -0.00371   0.00000  -0.01878  -0.01887   1.91117
   A35        1.93715  -0.00233   0.00000  -0.01537  -0.01554   1.92161
   A36        1.93714  -0.00234   0.00000  -0.01541  -0.01558   1.92156
   A37        1.87457   0.00353   0.00000   0.02393   0.02384   1.89840
   A38        1.87451   0.00354   0.00000   0.02395   0.02386   1.89837
   A39        1.90827   0.00173   0.00000   0.00436   0.00411   1.91239
    D1        0.99011  -0.00199   0.00000   0.00850   0.00893   0.99904
    D2        3.06532  -0.00074   0.00000   0.01379   0.01392   3.07924
    D3       -1.13929   0.00471   0.00000   0.07172   0.07116  -1.06813
    D4       -0.99052   0.00200   0.00000  -0.00818  -0.00862  -0.99914
    D5       -3.06593   0.00075   0.00000  -0.01341  -0.01354  -3.07948
    D6        1.13890  -0.00473   0.00000  -0.07159  -0.07103   1.06787
    D7       -0.98981   0.00198   0.00000  -0.00876  -0.00919  -0.99901
    D8       -3.06505   0.00072   0.00000  -0.01414  -0.01427  -3.07933
    D9        1.13951  -0.00473   0.00000  -0.07201  -0.07145   1.06806
   D10        0.98975  -0.00198   0.00000   0.00880   0.00924   0.99899
   D11        3.06519  -0.00074   0.00000   0.01394   0.01407   3.07926
   D12       -1.13946   0.00472   0.00000   0.07197   0.07141  -1.06805
   D13        0.99056  -0.00201   0.00000   0.00825   0.00869   0.99925
   D14        3.06594  -0.00075   0.00000   0.01354   0.01367   3.07961
   D15       -1.13885   0.00472   0.00000   0.07168   0.07112  -1.06773
   D16       -0.99001   0.00198   0.00000  -0.00866  -0.00909  -0.99910
   D17       -3.06542   0.00072   0.00000  -0.01391  -0.01404  -3.07946
   D18        1.13920  -0.00472   0.00000  -0.07185  -0.07129   1.06791
   D19       -3.13615   0.00036   0.00000   0.00084   0.00103  -3.13513
   D20       -1.05753   0.00086   0.00000   0.00858   0.00872  -1.04881
   D21        1.02114   0.00137   0.00000   0.01641   0.01652   1.03765
   D22       -1.02098  -0.00137   0.00000  -0.01636  -0.01646  -1.03744
   D23        1.05765  -0.00087   0.00000  -0.00863  -0.00877   1.04888
   D24        3.13632  -0.00036   0.00000  -0.00079  -0.00097   3.13534
   D25        1.06308  -0.00051   0.00000  -0.00778  -0.00774   1.05535
   D26       -3.14148  -0.00000   0.00000  -0.00004  -0.00005  -3.14153
   D27       -1.06281   0.00051   0.00000   0.00779   0.00775  -1.05506
   D28        1.05769  -0.00087   0.00000  -0.00862  -0.00876   1.04893
   D29        3.13626  -0.00036   0.00000  -0.00079  -0.00098   3.13528
   D30       -1.02101  -0.00137   0.00000  -0.01635  -0.01646  -1.03747
   D31       -1.05757   0.00087   0.00000   0.00866   0.00881  -1.04876
   D32        1.02100   0.00137   0.00000   0.01649   0.01659   1.03759
   D33       -3.13627   0.00036   0.00000   0.00092   0.00111  -3.13515
   D34       -3.14156  -0.00000   0.00000   0.00003   0.00003  -3.14152
   D35       -1.06299   0.00051   0.00000   0.00786   0.00782  -1.05517
   D36        1.06293  -0.00050   0.00000  -0.00770  -0.00766   1.05527
   D37       -1.05765   0.00087   0.00000   0.00883   0.00898  -1.04867
   D38        1.02102   0.00138   0.00000   0.01667   0.01677   1.03779
   D39       -3.13624   0.00036   0.00000   0.00100   0.00118  -3.13506
   D40        1.05763  -0.00086   0.00000  -0.00852  -0.00867   1.04897
   D41        3.13630  -0.00036   0.00000  -0.00069  -0.00087   3.13542
   D42       -1.02096  -0.00137   0.00000  -0.01636  -0.01646  -1.03742
   D43       -3.14159  -0.00000   0.00000   0.00013   0.00013  -3.14146
   D44       -1.06292   0.00051   0.00000   0.00796   0.00792  -1.05500
   D45        1.06300  -0.00051   0.00000  -0.00771  -0.00767   1.05534
         Item               Value     Threshold  Converged?
 Maximum Force            0.016288     0.000450     NO 
 RMS     Force            0.004745     0.000300     NO 
 Maximum Displacement     0.141621     0.001800     NO 
 RMS     Displacement     0.033308     0.001200     NO 
 Predicted change in Energy=-4.897026D-03
 GradGradGradGradGradGradGradGradGradGradGradGradGradGradGradGradGradGrad

                          Input orientation:                          
 ---------------------------------------------------------------------
 Center     Atomic      Atomic             Coordinates (Angstroms)
 Number     Number       Type             X           Y           Z
 ---------------------------------------------------------------------
      1          8           0        0.555189   -1.215766   -0.114673
      2          8           0       -1.330368    0.127046   -0.114550
      3          8           0        0.775224    1.088486   -0.114739
      4          6           0       -0.777237   -1.091408    0.329591
      5          6           0        1.333776   -0.127483    0.329565
      6          6           0       -0.556538    1.218795    0.329550
      7          6           0       -1.586643   -2.227571   -0.242047
      8          6           0        2.722588   -0.260094   -0.241815
      9          6           0       -1.135872    2.487777   -0.242035
     10          1           0       -0.776370   -1.090439    1.436823
     11          1           0        1.332257   -0.127336    1.436807
     12          1           0       -0.555938    1.217611    1.436784
     13          1           0       -2.628638   -2.148658    0.084355
     14          1           0       -1.555792   -2.184135   -1.336486
     15          1           0       -1.171676   -3.186624    0.084347
     16          1           0        2.669765   -0.254982   -1.336265
     17          1           0        3.345357    0.578964    0.084758
     18          1           0        3.175416   -1.201852    0.084599
     19          1           0       -1.113982    2.439370   -1.336483
     20          1           0       -2.173844    2.607979    0.084574
     21          1           0       -0.546476    3.350720    0.084240
 ---------------------------------------------------------------------
                    Distance matrix (angstroms):
                    1          2          3          4          5
     1  O    0.000000
     2  O    2.314837   0.000000
     3  O    2.314734   2.314711   0.000000
     4  C    1.410033   1.409909   2.712841   0.000000
     5  C    1.409931   2.712874   1.409953   2.320674   0.000000
     6  C    2.712998   1.409948   1.409952   2.320721   2.320722
     7  C    2.372218   2.371951   4.073188   1.507572   3.642246
     8  C    2.372150   4.073393   2.372139   3.642302   1.507601
     9  C    4.073345   2.372158   2.372026   3.642244   3.642179
    10  H    2.048388   2.048399   3.092330   1.107233   2.570218
    11  H    2.048318   3.092085   2.048366   2.570083   1.107243
    12  H    3.092401   2.048343   2.048388   2.570295   2.570259
    13  H    3.323650   2.627526   4.701597   2.146067   4.454885
    14  H    2.624272   2.624024   4.199565   2.139161   3.918564
    15  H    2.627918   3.323424   4.701768   2.146079   3.961788
    16  H    2.624276   4.199952   2.624178   3.918737   2.139184
    17  H    3.323533   4.701740   2.627736   4.454870   2.146033
    18  H    2.627830   4.701885   3.323598   3.961778   2.146140
    19  H    4.199877   2.624269   2.624242   3.918621   3.918669
    20  H    4.701951   2.627952   3.323490   3.961819   4.454904
    21  H    4.701704   3.323564   2.627582   4.454879   3.961493
                    6          7          8          9         10
     6  C    0.000000
     7  C    3.642153   0.000000
     8  C    3.642285   4.737134   0.000000
     9  C    1.507531   4.736845   4.736930   0.000000
    10  H    2.570397   2.183625   3.968628   3.968807   0.000000
    11  H    2.570143   3.968566   2.183671   3.968499   2.318162
    12  H    1.107235   3.968640   3.968633   2.183593   2.318552
    13  H    3.961497   1.094769   5.684073   4.881742   2.525845
    14  H    3.918433   1.095735   4.817133   4.816733   3.081381
    15  H    4.454911   1.094766   4.882239   5.683892   2.525758
    16  H    3.918671   4.817201   1.095735   4.816942   4.501538
    17  H    3.961577   5.684019   1.094765   4.881780   4.647969
    18  H    4.454999   4.882212   1.094763   5.683947   4.178221
    19  H    2.139208   4.816797   4.817123   1.095736   4.501639
    20  H    2.146048   4.882011   5.683962   1.094764   4.178493
    21  H    2.146015   5.683814   4.881708   1.094766   4.648249
                   11         12         13         14         15
    11  H    0.000000
    12  H    2.318224   0.000000
    13  H    4.647963   4.178147   0.000000
    14  H    4.501378   4.501401   1.780743   0.000000
    15  H    4.178286   4.648172   1.788885   1.780812   0.000000
    16  H    3.081419   4.501498   5.803209   4.645100   5.036798
    17  H    2.525761   4.178032   6.567232   5.803095   5.880752
    18  H    2.525923   4.648140   5.880772   5.036733   4.778758
    19  H    4.501466   3.081415   5.036165   4.644566   5.802921
    20  H    4.647927   2.525710   4.778330   5.036443   5.880626
    21  H    4.178031   2.525791   5.880353   5.802741   6.567171
                   16         17         18         19         20
    16  H    0.000000
    17  H    1.780785   0.000000
    18  H    1.780758   1.788907   0.000000
    19  H    4.645026   5.036540   5.803180   0.000000
    20  H    5.803091   5.880347   6.567297   1.780769   0.000000
    21  H    5.036181   4.777970   5.880339   1.780751   1.788851
                   21
    21  H    0.000000
 Stoichiometry    C6H12O3
 Framework group  C1[X(C6H12O3)]
 Deg. of freedom    57
 Full point group                 C1      NOp   1
 Largest Abelian subgroup         C1      NOp   1
 Largest concise Abelian subgroup C1      NOp   1
                         Standard orientation:                         
 ---------------------------------------------------------------------
 Center     Atomic      Atomic             Coordinates (Angstroms)
 Number     Number       Type             X           Y           Z
 ---------------------------------------------------------------------
      1          8           0        0.295816   -1.303365   -0.109579
      2          8           0       -1.276583    0.395467   -0.109455
      3          8           0        0.980737    0.907715   -0.109645
      4          6           0       -0.983320   -0.910129    0.334685
      5          6           0        1.279812   -0.396553    0.334659
      6          6           0       -0.296537    1.306642    0.334644
      7          6           0       -2.007244   -1.857538   -0.236952
      8          6           0        2.612470   -0.809358   -0.236721
      9          6           0       -0.605158    2.667045   -0.236941
     10          1           0       -0.982273   -0.909357    1.441917
     11          1           0        1.278355   -0.396099    1.441901
     12          1           0       -0.296192    1.305361    1.441879
     13          1           0       -3.011301   -1.567969    0.089449
     14          1           0       -1.968190   -1.821299   -1.331391
     15          1           0       -1.796394   -2.881023    0.089441
     16          1           0        2.561796   -0.793590   -1.331170
     17          1           0        3.393136   -0.114793    0.089852
     18          1           0        2.863911   -1.823625    0.089693
     19          1           0       -0.593590    2.615194   -1.331388
     20          1           0       -1.596863    2.996217    0.089669
     21          1           0        0.147702    3.391794    0.089335
 ---------------------------------------------------------------------
 Rotational constants (GHZ):           1.8275394           1.8274003           0.9785437
 Standard basis: 6-311++G(d,p) (5D, 7F)
 There are   291 symmetry adapted cartesian basis functions of A   symmetry.
 There are   282 symmetry adapted basis functions of A   symmetry.
   282 basis functions,   432 primitive gaussians,   291 cartesian basis functions
    36 alpha electrons       36 beta electrons
       nuclear repulsion energy       520.5982637777 Hartrees.
 NAtoms=   21 NActive=   21 NUniq=   21 SFac= 1.00D+00 NAtFMM=   60 NAOKFM=F Big=F
 Integral buffers will be    131072 words long.
 Raffenetti 2 integral format.
 Two-electron integral symmetry is turned on.
 R6APFD:  NTU= -4 IXU= 1 FactS= 1.050
 Nuclear repulsion after empirical dispersion term =      520.5832633926 Hartrees.
 One-electron integrals computed using PRISM.
 NBasis=   282 RedAO= T EigKep=  2.31D-05  NBF=   282
 NBsUse=   282 1.00D-06 EigRej= -1.00D+00 NBFU=   282
 Initial guess from the checkpoint file:  "PLDE0144.chk"
 B after Tr=     0.000000   -0.000000    0.000000
         Rot=    0.991950    0.000005    0.000012    0.126631 Ang=  14.55 deg.
 ExpMin= 3.60D-02 ExpMax= 8.59D+03 ExpMxC= 1.30D+03 IAcc=3 IRadAn=         5 AccDes= 0.00D+00
 Harris functional with IExCor= 1009 and IRadAn=       5 diagonalized for initial guess.
 HarFok:  IExCor= 1009 AccDes= 0.00D+00 IRadAn=         5 IDoV= 1 UseB2=F ITyADJ=14
 ICtDFT=  3500011 ScaDFX=  1.000000  1.000000  1.000000  1.000000
 FoFCou: FMM=F IPFlag=           0 FMFlag=      100000 FMFlg1=           0
         NFxFlg=           0 DoJE=T BraDBF=F KetDBF=T FulRan=T
         wScrn=  0.000000 ICntrl=       500 IOpCl=  0 I1Cent=   200000004 NGrid=           0
         NMat0=    1 NMatS0=      1 NMatT0=    0 NMatD0=    1 NMtDS0=    0 NMtDT0=    0
 Petite list used in FoFCou.
 Requested convergence on RMS density matrix=1.00D-08 within  32 cycles.
 Requested convergence on MAX density matrix=1.00D-06.
 Requested convergence on             energy=1.00D-06.
 No special actions if energy rises.
 SCF Done:  E(RM08HX) =  -461.535053926     A.U. after   11 cycles
            NFock= 11  Conv=0.29D-08     -V/T= 2.0044
 QCSCF skips out because SCF is already converged.
 R6APFD:  NTU= -4 IXU= 1 FactS= 1.050
 Calling FoFJK, ICntrl=      2127 FMM=F ISym2X=0 I1Cent= 0 IOpClX= 0 NMat=1 NMatS=1 NMatT=0.
 ***** Axes restored to original set *****
 -------------------------------------------------------------------
 Center     Atomic                   Forces (Hartrees/Bohr)
 Number     Number              X              Y              Z
 -------------------------------------------------------------------
      1        8          -0.000229502    0.000381199    0.001185706
      2        8           0.000389156   -0.000003972    0.001165768
      3        8          -0.000303959   -0.000272337    0.001180372
      4        6           0.000239046    0.000119492   -0.004369883
      5        6          -0.000236790    0.000029516   -0.004350916
      6        6           0.000134490   -0.000297190   -0.004351550
      7        6          -0.000330513   -0.000490754   -0.000392048
      8        6           0.000557327   -0.000053097   -0.000380217
      9        6          -0.000264719    0.000559383   -0.000386151
     10        1           0.000040076    0.000048288    0.002030488
     11        1          -0.000041879    0.000009836    0.002024605
     12        1           0.000030353   -0.000039993    0.002027845
     13        1           0.000335697   -0.000059008    0.000460800
     14        1           0.000671705    0.000930538    0.000626574
     15        1          -0.000180017    0.000286466    0.000457629
     16        1          -0.001137337    0.000106495    0.000627250
     17        1          -0.000159144   -0.000294875    0.000449251
     18        1          -0.000102095    0.000326601    0.000464135
     19        1           0.000472468   -0.001043344    0.000630255
     20        1           0.000339184    0.000006876    0.000454669
     21        1          -0.000223546   -0.000250121    0.000445418
 -------------------------------------------------------------------
 Cartesian Forces:  Max     0.004369883 RMS     0.001146121

 GradGradGradGradGradGradGradGradGradGradGradGradGradGradGradGradGradGrad
 Berny optimization.
 Using GEDIIS/GDIIS optimizer.
 FormGI is forming the generalized inverse of G from B-inverse, IUseBI=4.
 Internal  Forces:  Max     0.002029898 RMS     0.000587993
 Search for a local minimum.
 Step number   2 out of a maximum of  115
 All quantities printed in internal units (Hartrees-Bohrs-Radians)
 Mixed Optimization -- En-DIIS/RFO-DIIS
 Update second derivatives using D2CorX and points    1    2
 DE= -5.01D-03 DEPred=-4.90D-03 R= 1.02D+00
 TightC=F SS=  1.41D+00  RLast= 2.60D-01 DXNew= 5.0454D-01 7.8090D-01
 Trust test= 1.02D+00 RLast= 2.60D-01 DXMaxT set to 5.05D-01
 ITU=  1  0
 Use linear search instead of GDIIS.
     Eigenvalues ---    0.00524   0.00524   0.00527   0.01895   0.01896
     Eigenvalues ---    0.02405   0.05140   0.05140   0.05511   0.05687
     Eigenvalues ---    0.05688   0.05772   0.05776   0.05778   0.05881
     Eigenvalues ---    0.05882   0.05883   0.06563   0.09780   0.09780
     Eigenvalues ---    0.10490   0.15288   0.16000   0.16000   0.16000
     Eigenvalues ---    0.16000   0.16000   0.16000   0.16000   0.16094
     Eigenvalues ---    0.16188   0.16189   0.17277   0.20285   0.20285
     Eigenvalues ---    0.20930   0.29950   0.30531   0.30546   0.33114
     Eigenvalues ---    0.33926   0.33933   0.34134   0.34135   0.34143
     Eigenvalues ---    0.34291   0.34297   0.34298   0.34299   0.34301
     Eigenvalues ---    0.34304   0.36996   0.37005   0.39062   0.40270
     Eigenvalues ---    0.40917   0.40924
 RFO step:  Lambda=-1.44505380D-04 EMin= 5.23739720D-03
 Quartic linear search produced a step of  0.06398.
 Iteration  1 RMS(Cart)=  0.00475499 RMS(Int)=  0.00002280
 Iteration  2 RMS(Cart)=  0.00001950 RMS(Int)=  0.00001986
 Iteration  3 RMS(Cart)=  0.00000000 RMS(Int)=  0.00001986
 Variable       Old X    -DE/DX   Delta X   Delta X   Delta X     New X
                                 (Linear)    (Quad)   (Total)
    R1        2.66458  -0.00099  -0.00249  -0.00069  -0.00319   2.66139
    R2        2.66438  -0.00090  -0.00248  -0.00048  -0.00295   2.66143
    R3        2.66434  -0.00087  -0.00248  -0.00036  -0.00284   2.66150
    R4        2.66442  -0.00091  -0.00248  -0.00049  -0.00298   2.66144
    R5        2.66442  -0.00088  -0.00248  -0.00044  -0.00292   2.66151
    R6        2.66442  -0.00097  -0.00248  -0.00065  -0.00313   2.66129
    R7        2.84890  -0.00121  -0.00129  -0.00320  -0.00449   2.84441
    R8        2.09237   0.00203   0.00114   0.00549   0.00663   2.09900
    R9        2.84895  -0.00122  -0.00129  -0.00326  -0.00456   2.84439
   R10        2.09239   0.00203   0.00114   0.00548   0.00662   2.09900
   R11        2.84882  -0.00117  -0.00127  -0.00309  -0.00436   2.84446
   R12        2.09237   0.00203   0.00115   0.00547   0.00662   2.09900
   R13        2.06881  -0.00018   0.00003  -0.00059  -0.00056   2.06825
   R14        2.07064  -0.00057  -0.00003  -0.00175  -0.00178   2.06886
   R15        2.06881  -0.00019   0.00003  -0.00061  -0.00057   2.06823
   R16        2.07064  -0.00057  -0.00002  -0.00177  -0.00179   2.06885
   R17        2.06881  -0.00019   0.00004  -0.00060  -0.00057   2.06824
   R18        2.06880  -0.00018   0.00003  -0.00058  -0.00055   2.06825
   R19        2.07064  -0.00057  -0.00003  -0.00177  -0.00179   2.06885
   R20        2.06880  -0.00019   0.00003  -0.00061  -0.00058   2.06822
   R21        2.06881  -0.00018   0.00003  -0.00059  -0.00055   2.06826
    A1        1.93315  -0.00017   0.00117  -0.00186  -0.00069   1.93246
    A2        1.93332  -0.00017   0.00115  -0.00174  -0.00059   1.93273
    A3        1.93327  -0.00019   0.00117  -0.00204  -0.00087   1.93240
    A4        1.92590   0.00026  -0.00159   0.00488   0.00327   1.92917
    A5        1.89801   0.00009   0.00069   0.00132   0.00201   1.90002
    A6        1.89063  -0.00016  -0.00158  -0.00103  -0.00268   1.88795
    A7        1.89781   0.00005   0.00068   0.00104   0.00172   1.89953
    A8        1.89079  -0.00016  -0.00158  -0.00109  -0.00273   1.88806
    A9        1.96087  -0.00007   0.00345  -0.00497  -0.00151   1.95936
   A10        1.92584   0.00026  -0.00160   0.00491   0.00329   1.92913
   A11        1.89800   0.00004   0.00069   0.00102   0.00170   1.89970
   A12        1.89064  -0.00014  -0.00159  -0.00092  -0.00257   1.88808
   A13        1.89797   0.00010   0.00068   0.00140   0.00208   1.90005
   A14        1.89069  -0.00016  -0.00159  -0.00105  -0.00270   1.88799
   A15        1.96089  -0.00009   0.00347  -0.00521  -0.00174   1.95915
   A16        1.92579   0.00026  -0.00160   0.00491   0.00328   1.92907
   A17        1.89806   0.00008   0.00069   0.00128   0.00196   1.90002
   A18        1.89067  -0.00015  -0.00158  -0.00085  -0.00249   1.88818
   A19        1.89790   0.00005   0.00068   0.00101   0.00168   1.89958
   A20        1.89072  -0.00015  -0.00158  -0.00110  -0.00274   1.88798
   A21        1.96087  -0.00008   0.00346  -0.00508  -0.00162   1.95925
   A22        1.92158  -0.00011  -0.00099  -0.00017  -0.00118   1.92041
   A23        1.91106  -0.00155  -0.00121  -0.00882  -0.01005   1.90102
   A24        1.92160  -0.00007  -0.00099   0.00018  -0.00083   1.92077
   A25        1.89836   0.00089   0.00152   0.00502   0.00653   1.90489
   A26        1.91243  -0.00001   0.00026  -0.00116  -0.00091   1.91153
   A27        1.89847   0.00088   0.00152   0.00505   0.00657   1.90504
   A28        1.91106  -0.00154  -0.00121  -0.00875  -0.00997   1.90109
   A29        1.92151  -0.00007  -0.00100   0.00013  -0.00088   1.92062
   A30        1.92166  -0.00010  -0.00099  -0.00008  -0.00109   1.92057
   A31        1.89843   0.00087   0.00153   0.00503   0.00655   1.90497
   A32        1.89839   0.00088   0.00152   0.00501   0.00651   1.90490
   A33        1.91248  -0.00002   0.00027  -0.00124  -0.00099   1.91149
   A34        1.91117  -0.00155  -0.00121  -0.00885  -0.01008   1.90110
   A35        1.92161  -0.00008  -0.00099   0.00013  -0.00088   1.92073
   A36        1.92156  -0.00009  -0.00100   0.00003  -0.00099   1.92058
   A37        1.89840   0.00088   0.00153   0.00502   0.00653   1.90494
   A38        1.89837   0.00087   0.00153   0.00492   0.00643   1.90480
   A39        1.91239  -0.00002   0.00026  -0.00113  -0.00089   1.91150
    D1        0.99904  -0.00012   0.00057  -0.00420  -0.00361   0.99543
    D2        3.07924   0.00015   0.00089   0.00079   0.00170   3.08094
    D3       -1.06813   0.00002   0.00455  -0.00508  -0.00057  -1.06870
    D4       -0.99914   0.00010  -0.00055   0.00381   0.00323  -0.99590
    D5       -3.07948  -0.00020  -0.00087  -0.00146  -0.00234  -3.08181
    D6        1.06787  -0.00002  -0.00454   0.00483   0.00032   1.06819
    D7       -0.99901   0.00012  -0.00059   0.00429   0.00368  -0.99533
    D8       -3.07933  -0.00018  -0.00091  -0.00087  -0.00180  -3.08112
    D9        1.06806  -0.00002  -0.00457   0.00521   0.00067   1.06874
   D10        0.99899  -0.00010   0.00059  -0.00408  -0.00347   0.99552
   D11        3.07926   0.00016   0.00090   0.00086   0.00177   3.08103
   D12       -1.06805   0.00002   0.00457  -0.00507  -0.00054  -1.06859
   D13        0.99925  -0.00010   0.00056  -0.00372  -0.00314   0.99612
   D14        3.07961   0.00016   0.00087   0.00132   0.00221   3.08182
   D15       -1.06773   0.00001   0.00455  -0.00481  -0.00030  -1.06802
   D16       -0.99910   0.00010  -0.00058   0.00388   0.00327  -0.99582
   D17       -3.07946  -0.00018  -0.00090  -0.00123  -0.00214  -3.08160
   D18        1.06791  -0.00002  -0.00456   0.00502   0.00050   1.06841
   D19       -3.13513  -0.00025   0.00007  -0.00358  -0.00350  -3.13863
   D20       -1.04881  -0.00020   0.00056  -0.00298  -0.00242  -1.05123
   D21        1.03765  -0.00012   0.00106  -0.00214  -0.00108   1.03657
   D22       -1.03744   0.00014  -0.00105   0.00373   0.00267  -1.03477
   D23        1.04888   0.00020  -0.00056   0.00432   0.00375   1.05263
   D24        3.13534   0.00027  -0.00006   0.00516   0.00509   3.14043
   D25        1.05535  -0.00007  -0.00050  -0.00005  -0.00055   1.05480
   D26       -3.14153  -0.00001  -0.00000   0.00054   0.00054  -3.14099
   D27       -1.05506   0.00007   0.00050   0.00138   0.00187  -1.05319
   D28        1.04893   0.00020  -0.00056   0.00304   0.00247   1.05140
   D29        3.13528   0.00027  -0.00006   0.00387   0.00380   3.13908
   D30       -1.03747   0.00013  -0.00105   0.00237   0.00131  -1.03616
   D31       -1.04876  -0.00020   0.00056  -0.00433  -0.00376  -1.05252
   D32        1.03759  -0.00013   0.00106  -0.00350  -0.00243   1.03516
   D33       -3.13515  -0.00027   0.00007  -0.00501  -0.00493  -3.14008
   D34       -3.14152  -0.00001   0.00000  -0.00069  -0.00069   3.14097
   D35       -1.05517   0.00006   0.00050   0.00014   0.00064  -1.05453
   D36        1.05527  -0.00007  -0.00049  -0.00137  -0.00186   1.05341
   D37       -1.04867  -0.00019   0.00057  -0.00309  -0.00251  -1.05118
   D38        1.03779  -0.00012   0.00107  -0.00234  -0.00127   1.03653
   D39       -3.13506  -0.00025   0.00008  -0.00366  -0.00357  -3.13863
   D40        1.04897   0.00020  -0.00055   0.00419   0.00363   1.05259
   D41        3.13542   0.00027  -0.00006   0.00494   0.00488   3.14030
   D42       -1.03742   0.00014  -0.00105   0.00363   0.00257  -1.03485
   D43       -3.14146  -0.00001   0.00001   0.00030   0.00031  -3.14115
   D44       -1.05500   0.00006   0.00051   0.00105   0.00155  -1.05345
   D45        1.05534  -0.00007  -0.00049  -0.00026  -0.00075   1.05458
         Item               Value     Threshold  Converged?
 Maximum Force            0.002030     0.000450     NO 
 RMS     Force            0.000588     0.000300     NO 
 Maximum Displacement     0.014767     0.001800     NO 
 RMS     Displacement     0.004763     0.001200     NO 
 Predicted change in Energy=-9.155065D-05
 GradGradGradGradGradGradGradGradGradGradGradGradGradGradGradGradGradGrad

                          Input orientation:                          
 ---------------------------------------------------------------------
 Center     Atomic      Atomic             Coordinates (Angstroms)
 Number     Number       Type             X           Y           Z
 ---------------------------------------------------------------------
      1          8           0        0.555262   -1.215728   -0.118436
      2          8           0       -1.330416    0.126926   -0.117954
      3          8           0        0.775031    1.088643   -0.118625
      4          6           0       -0.776001   -1.090140    0.323614
      5          6           0        1.331875   -0.127117    0.323490
      6          6           0       -0.555816    1.217093    0.323683
      7          6           0       -1.585624   -2.226298   -0.241424
      8          6           0        2.720911   -0.259943   -0.240892
      9          6           0       -1.135314    2.486328   -0.241049
     10          1           0       -0.773338   -1.086933    1.434347
     11          1           0        1.327462   -0.126556    1.434226
     12          1           0       -0.553616    1.213381    1.434416
     13          1           0       -2.626106   -2.145514    0.088336
     14          1           0       -1.550696   -2.177826   -1.334586
     15          1           0       -1.170516   -3.183572    0.088969
     16          1           0        2.661950   -0.255092   -1.334080
     17          1           0        3.341596    0.579024    0.088856
     18          1           0        3.171835   -1.200698    0.090042
     19          1           0       -1.111476    2.431905   -1.334223
     20          1           0       -2.171724    2.605360    0.089891
     21          1           0       -0.545079    3.347157    0.088298
 ---------------------------------------------------------------------
                    Distance matrix (angstroms):
                    1          2          3          4          5
     1  O    0.000000
     2  O    2.314843   0.000000
     3  O    2.314827   2.314694   0.000000
     4  C    1.408347   1.408406   2.710788   0.000000
     5  C    1.408367   2.710572   1.408408   2.317446   0.000000
     6  C    2.710826   1.408372   1.408293   2.317716   2.317386
     7  C    2.370606   2.370240   4.071438   1.505195   3.638336
     8  C    2.370349   4.071613   2.370671   3.638171   1.505188
     9  C    4.071645   2.370652   2.370217   3.638554   3.638106
    10  H    2.047658   2.047786   3.089062   1.110741   2.566549
    11  H    2.047766   3.088338   2.047739   2.566420   1.110745
    12  H    3.088936   2.047841   2.047632   2.567011   2.566352
    13  H    3.320897   2.623996   4.697908   2.142909   4.449139
    14  H    2.615284   2.615454   4.190154   2.129046   3.906896
    15  H    2.625592   3.320810   4.698943   2.143165   3.957129
    16  H    2.615100   4.190930   2.615994   3.907015   2.129089
    17  H    3.320808   4.698389   2.624884   4.449251   2.143052
    18  H    2.624909   4.698522   3.321038   3.956285   2.143018
    19  H    4.190630   2.615373   2.615519   3.907143   3.907246
    20  H    4.698996   2.625573   3.320734   3.957195   4.449293
    21  H    4.698234   3.321021   2.624193   4.449529   3.955863
                    6          7          8          9         10
     6  C    0.000000
     7  C    3.638240   0.000000
     8  C    3.638313   4.734215   0.000000
     9  C    1.505223   4.734091   4.734182   0.000000
    10  H    2.566987   2.183156   3.962337   3.963101   0.000000
    11  H    2.566210   3.962675   2.183005   3.962193   2.309911
    12  H    1.110741   3.962937   3.962305   2.183105   2.310783
    13  H    3.955833   1.094472   5.679292   4.876978   2.522913
    14  H    3.907060   1.094794   4.808436   4.808606   3.075927
    15  H    4.449584   1.094462   4.878484   5.679604   2.522635
    16  H    3.907625   4.808476   1.094788   4.809295   4.489695
    17  H    3.956273   5.679474   1.094464   4.877435   4.638798
    18  H    4.449234   4.878027   1.094472   5.679376   4.169472
    19  H    2.129126   4.808106   4.809221   1.094787   4.490160
    20  H    2.143153   4.878340   5.679547   1.094456   4.170860
    21  H    2.143057   5.679335   4.877112   1.094475   4.639515
                   11         12         13         14         15
    11  H    0.000000
    12  H    2.309520   0.000000
    13  H    4.638784   4.170051   0.000000
    14  H    4.489746   4.490192   1.783889   0.000000
    15  H    4.170726   4.639395   1.787822   1.783976   0.000000
    16  H    3.075857   4.490084   5.793143   4.630690   5.028802
    17  H    2.522816   4.169606   6.560227   5.793180   5.875056
    18  H    2.522364   4.638329   5.874419   5.028583   4.773657
    19  H    4.489816   3.075934   5.026982   4.630608   5.793318
    20  H    4.638417   2.522624   4.772554   5.029282   5.874875
    21  H    4.169486   2.522916   5.873680   5.793211   6.560609
                   16         17         18         19         20
    16  H    0.000000
    17  H    1.783933   0.000000
    18  H    1.783894   1.787801   0.000000
    19  H    4.632354   5.028734   5.794056   0.000000
    20  H    5.794333   5.873903   6.560465   1.783904   0.000000
    21  H    5.028359   4.771666   5.873537   1.783832   1.787803
                   21
    21  H    0.000000
 Stoichiometry    C6H12O3
 Framework group  C1[X(C6H12O3)]
 Deg. of freedom    57
 Full point group                 C1      NOp   1
 Largest Abelian subgroup         C1      NOp   1
 Largest concise Abelian subgroup C1      NOp   1
                         Standard orientation:                         
 ---------------------------------------------------------------------
 Center     Atomic      Atomic             Coordinates (Angstroms)
 Number     Number       Type             X           Y           Z
 ---------------------------------------------------------------------
      1          8           0       -1.135716   -0.704577   -0.111199
      2          8           0       -0.042353    1.335780   -0.110716
      3          8           0        1.177945   -0.631116   -0.111387
      4          6           0       -1.179521    0.631879    0.330851
      5          6           0        0.042380   -1.337261    0.330727
      6          6           0        1.137032    0.705290    0.330921
      7          6           0       -2.408957    1.291294   -0.234186
      8          6           0        0.086312   -2.731942   -0.233655
      9          6           0        2.322776    1.440671   -0.233811
     10          1           0       -1.176002    0.629643    1.441585
     11          1           0        0.042379   -1.332814    1.441463
     12          1           0        1.133628    0.702637    1.441653
     13          1           0       -2.460427    2.333637    0.095573
     14          1           0       -2.356457    1.262777   -1.327349
     15          1           0       -3.306038    0.758439    0.096206
     16          1           0        0.083666   -2.672842   -1.326843
     17          1           0        0.997048   -3.241527    0.096093
[...]
 17,-0.02436557,0.00002574,0.00009197,0.00006495,-0.00005411,-0.0003475
 6,-0.00024668,-0.00274224,0.06362271,0.01505773,-0.00269867,-0.0142104
 6,-0.00748980,0.01335428,-0.01430958,0.00053154,0.00073252,0.00037616,
 -0.00380184,-0.00563152,-0.27252622,-0.00313486,-0.00210872,-0.0010183
 1,-0.00100742,-0.00366779,-0.00099397,-0.00039480,-0.00054513,-0.00888
 919,0.00029904,0.00014532,0.00081517,0.00003989,0.00033265,0.00081332,
 -0.00059249,-0.00051656,0.30691901,-0.00529759,-0.01165959,-0.02273196
 ,-0.00077236,0.00027717,0.00091720,-0.00045408,0.00943054,-0.01602774,
 0.00354241,-0.00060603,-0.00459349,-0.05757193,0.00153652,0.01280665,0
 .00240173,-0.00016254,-0.00390542,-0.00018129,-0.00010813,0.00013740,0
 .00118070,0.00008518,0.02980178,-0.00008403,0.00011650,0.00008180,-0.0
 0020422,-0.00010059,0.00085449,0.06147465,-0.01522590,-0.01229988,-0.0
 3364659,0.00026202,0.00186096,-0.00009150,0.01293278,-0.01701569,0.037
 35538,0.00576466,-0.00131542,-0.00314726,0.00156959,-0.04186383,-0.001
 23741,-0.00648759,-0.00015834,0.00395429,-0.00033840,-0.00006394,0.000
 25607,0.00009222,0.00216144,-0.00285382,0.00033735,-0.00014999,-0.0002
 7499,-0.00047100,0.00021661,0.00148037,0.00057231,0.06769754,-0.007854
 10,-0.01315853,-0.01422625,-0.00090389,0.00008366,0.00037814,-0.005236
 23,0.01441258,-0.01425412,0.00365609,0.00095967,-0.00101338,0.00692730
 ,-0.00065904,-0.27253529,0.00343604,-0.00164008,-0.00100725,-0.0003088
 2,-0.00013001,0.00081235,0.00065771,-0.00006802,-0.00889150,-0.0002775
 9,0.00018933,0.00081005,-0.00165850,0.00032786,0.00117365,0.00065667,-
 0.00004292,0.30691221,0.00142352,0.00100737,-0.00038042,-0.00320987,-0
 .01451236,-0.02435223,-0.02224374,0.00545428,0.04052694,-0.00234548,0.
 00376799,-0.00146339,0.00221509,-0.00656303,0.00499039,-0.04445997,0.0
 0606643,-0.00522917,0.00006279,-0.00025033,0.00019758,-0.00028339,0.00
 027602,-0.00028863,0.00200393,0.00040281,-0.01242417,0.00035275,-0.000
 26042,0.00112685,-0.00008320,0.00053014,-0.00168328,0.06652884,0.00099
 790,-0.00033762,0.00084032,-0.01102644,-0.01418775,-0.03257180,0.00191
 622,0.00458533,-0.00284082,-0.00259057,0.00463517,-0.00535120,-0.00018
 010,0.00006368,-0.00241607,0.00612876,-0.05496505,0.01181726,-0.000030
 71,-0.00029291,0.00020513,0.00004839,0.00003970,-0.00000917,0.00036572
 ,0.00136000,0.02722530,0.00011461,-0.00032466,0.00126161,0.00015589,0.
 00008747,-0.00001655,0.00222736,0.06248704,0.00038197,-0.00082452,0.00
 037690,-0.00986362,-0.01169813,-0.01427426,0.01532203,-0.00020533,-0.0
 1425185,-0.00028594,0.00382374,-0.00100546,-0.00266620,0.00267629,-0.0
 0099847,-0.00276075,0.00632123,-0.27252151,-0.00002349,-0.00033071,0.0
 0081347,0.00026769,-0.00019894,0.00081003,-0.00028134,0.00067295,-0.00
 889125,0.00085602,-0.00146490,0.00116926,0.00053381,-0.00160763,0.0011
 5736,-0.00039709,0.00048294,0.30694030,-0.00267122,-0.00457311,-0.0025
 1263,0.00133417,0.00081852,-0.00002674,0.00067325,-0.00062105,0.000006
 27,-0.01599551,0.00613812,0.00802010,0.00000772,0.00190444,0.00075486,
 -0.00042938,-0.00026768,-0.00006531,-0.29185449,0.01694142,0.07771204,
 -0.00014435,-0.00035831,-0.00016375,0.00001985,-0.00000953,-0.00000319
 ,0.00025448,-0.00015204,-0.00060862,-0.00007817,-0.00014287,-0.0001375
 2,0.00001091,0.00001993,-0.00001902,0.31658583,-0.00437387,-0.00491372
 ,-0.00242201,0.00114500,0.00119147,0.00016047,0.00057700,-0.00011966,-
 0.00001993,-0.02301319,0.00384507,0.01080819,-0.00110477,0.00122202,0.
 00053136,-0.00048860,-0.00005511,-0.00005555,0.02151126,-0.04861820,-0
 .00808362,-0.00016294,-0.00044968,-0.00018894,0.00006118,0.00006202,0.
 00004498,0.00060005,0.00059623,-0.00014212,-0.00003679,-0.00009941,-0.
 00008226,0.00003109,0.00005809,0.00001625,-0.01885846,0.04866332,-0.00
 229780,-0.00284844,-0.00043408,0.00032823,0.00085661,0.00006730,0.0000
 1094,-0.00012197,-0.00007060,-0.01263328,0.00300118,0.00329208,-0.0005
 6893,0.00007272,0.00096430,-0.00014477,0.00014824,-0.00004222,0.080199
 22,-0.00744396,-0.07213903,-0.00012026,-0.00022052,-0.00014798,0.00003
 425,0.00001231,-0.00000797,0.00018784,0.00068303,-0.00001121,0.0000570
 1,0.00007086,-0.00001925,-0.00001592,-0.00001683,-0.00005308,-0.084907
 60,0.00878203,0.07332853,0.00166276,0.00104531,0.00050026,0.00021210,0
 .00142797,0.00116525,-0.00015922,0.00031265,0.00012267,-0.00064466,0.0
 0063783,-0.02180633,-0.00031157,-0.00061587,-0.00030336,0.00011318,0.0
 0001343,-0.00020383,-0.04633932,-0.00076100,0.01153777,0.00005873,0.00
 005512,0.00008829,-0.00002779,0.00001807,0.00006790,-0.00136508,-0.002
 74290,-0.00074647,-0.00004187,0.00009706,0.00029804,0.00000455,0.00004
 387,0.00011481,0.00100009,-0.00169890,0.03028347,0.04645131,0.00194011
 ,0.00107323,0.00141753,0.00054372,0.00252406,0.00092485,0.00031386,0.0
 0005693,0.00017219,0.00069391,-0.00024225,-0.03063053,-0.00013703,-0.0
 0009457,-0.00031966,-0.00046812,-0.00051304,-0.00038665,-0.00075166,-0
 .04688080,0.01574814,0.00004660,-0.00000332,0.00010263,0.00002461,0.00
 008330,0.00011709,-0.00275858,-0.00326740,-0.00106775,0.00002811,0.000
 05315,0.00022503,0.00011374,0.00000674,0.00035481,-0.00009151,-0.00140
 874,-0.00258675,0.00283645,0.04843781,0.00027539,0.00051221,0.00139984
 ,0.00038845,0.00038939,0.00140146,0.00000805,0.00001556,0.00006716,0.0
 0059447,0.00088301,-0.01682710,-0.00008828,0.00000453,0.00017411,0.000
 04489,-0.00008236,0.00018334,0.00907075,0.01225376,-0.31718446,-0.0000
 0995,-0.00005474,0.00002594,-0.00005054,-0.00002739,0.00002531,-0.0014
 0922,-0.00197815,0.00056554,0.00017392,0.00018265,0.00014521,0.0001162
 8,0.00022537,0.00014420,-0.00107180,0.00048914,-0.00665474,-0.00881884
 ,-0.01190513,0.34324080,0.00058767,0.00087762,0.00015400,-0.00193245,-
 0.00414592,-0.00149219,-0.00002474,0.00033614,-0.00002127,0.00694606,-
 0.01505356,0.00765065,0.00013862,-0.00028856,-0.00002938,0.00085632,-0
 .00081668,0.00026027,-0.08655185,0.09258245,-0.03307671,0.00004175,0.0
 0006830,0.00004293,-0.00025814,-0.00020240,-0.00012674,0.00042576,0.00
 066306,0.00006238,0.00003747,0.00003960,0.00002085,-0.00004229,-0.0000
 2232,-0.00003294,-0.00866234,0.02593382,-0.01034567,-0.00058646,-0.002
 30349,0.00081773,0.08898084,0.00054957,0.00193088,0.00003734,-0.004351
 86,-0.00573027,-0.00321269,-0.00086600,0.00057672,-0.00000118,0.014106
 69,-0.01896026,0.01122352,-0.00007383,-0.00062319,-0.00008393,0.002211
 12,0.00037439,0.00089640,0.08795599,-0.25394627,0.07110432,-0.00000241
 ,0.00004099,0.00001173,-0.00040006,-0.00034000,-0.00021845,-0.00009546
 ,0.00043259,-0.00065273,0.00002916,0.00003116,-0.00001398,-0.00013039,
 -0.00013384,-0.00015755,-0.00074499,0.00001409,-0.00041501,-0.00063990
 ,0.00022020,-0.00084859,-0.09757838,0.27619605,0.00070162,0.00057661,0
 .00006159,-0.00195765,-0.00313261,-0.00044885,-0.00012047,-0.00002919,
 -0.00007145,0.00694628,-0.01097049,0.00331641,0.00018922,-0.00008531,-
 0.00003735,0.00026091,-0.00051675,0.00096941,-0.03325235,0.07372928,-0
 .07238928,-0.00000057,0.00003566,-0.00000891,-0.00017094,-0.00018682,-
 0.00014940,0.00058962,0.00040284,-0.00001696,-0.00001035,-0.00002057,-
 0.00005318,0.00004824,0.00007921,-0.00001943,0.00296499,-0.00988282,0.
 00188429,-0.01232812,0.02779392,-0.00673233,0.03609289,-0.07773842,0.0
 7365213,0.00272355,0.00096925,-0.00134772,0.00027760,-0.00004437,-0.00
 021208,0.00261545,-0.00142638,-0.00154435,-0.00055195,0.00005388,0.000
 42964,0.00027495,-0.00010699,0.03742858,-0.00049626,0.00000150,0.00044
 202,0.00006811,0.00003611,-0.00013344,-0.04740146,0.00014754,-0.019631
 17,0.00006595,-0.00004676,-0.00013703,0.00007565,-0.00007221,-0.000365
 19,-0.00521081,0.00056198,0.00130916,0.00008688,0.00004451,-0.00034429
 ,0.00002271,0.00001258,0.00000501,-0.00005736,-0.00005126,-0.00003082,
 -0.00000674,0.00000025,-0.00000044,0.05032399,0.00007333,-0.00006498,0
 .00054348,-0.00006292,-0.00038133,0.00002096,-0.00054918,0.00020629,-0
 .00026619,-0.00040332,0.00015995,0.00002190,-0.00016406,-0.00109100,-0
 .00355037,0.00052454,0.00007379,-0.00010370,0.00004316,-0.00001843,0.0
 0000002,0.00016281,-0.04585057,0.00171859,-0.00005611,-0.00000144,0.00
 002584,-0.00000331,-0.00006334,-0.00007811,0.00055168,0.00054071,-0.00
 013013,-0.00002477,-0.00007229,0.00014518,0.00002053,0.00000633,-0.000
 01427,-0.00003256,0.00001522,-0.00001684,-0.00001393,-0.00001724,0.000
 01903,-0.00059699,0.04440727,-0.00050616,0.00013919,0.00138206,-0.0000
 1688,-0.00000513,0.00006687,-0.00059583,-0.00004460,0.00142493,0.00004
 979,0.00008577,0.00018550,-0.00111135,0.00010504,-0.01680891,0.0000431
 8,-0.00007057,0.00017477,0.00005048,-0.00003034,0.00002537,-0.01537184
 ,0.00133483,-0.31729336,0.00004976,0.00001929,0.00002747,-0.00025310,-
 0.00001177,0.00014442,0.00242506,-0.00023767,0.00056325,-0.00024687,0.
 00005936,0.00014453,0.00000808,0.00001582,0.00000688,0.00003274,0.0000
 1224,0.00001960,-0.00000225,-0.00000253,-0.00001282,0.01497800,-0.0012
 7883,0.34332766,-0.00832697,0.00056250,0.00345251,0.00019842,0.0009823
 5,0.00000739,0.00223360,0.00036848,-0.00009076,0.00109446,-0.00203947,
 -0.00089219,-0.01302066,-0.02556787,-0.01343285,-0.00058617,-0.0003400
 9,0.00008612,-0.00057248,0.00021002,0.00024711,-0.13387918,-0.11523200
 ,-0.04481326,0.00006939,0.00001749,-0.00003157,-0.00017461,0.00005115,
 0.00014893,0.00061892,0.00024661,0.00052229,0.00006479,-0.00001528,-0.
 00000142,-0.00012186,-0.00015944,-0.00008343,0.00002987,0.00000781,-0.
 00001631,0.00002854,0.00001978,0.00001300,-0.00132148,0.00030703,0.000
 35990,0.14492236,0.00038255,0.00080414,0.00031968,-0.00020752,0.000355
 00,-0.00001795,0.00008482,0.00028694,0.00012201,0.00095681,0.00013192,
 -0.00022330,0.00351865,0.00089291,0.00102882,-0.00013001,0.00010167,0.
 00001541,0.00001672,-0.00001716,0.00000010,-0.11976598,-0.20652345,-0.
 06402013,-0.00005051,0.00001267,0.00003147,-0.00005507,0.00000121,0.00
 004987,-0.00051049,0.00018296,0.00037128,-0.00002512,0.00000619,0.0000
 2501,-0.00000663,0.00002206,0.00000586,0.00001437,-0.00000059,0.000004
 36,0.00001446,0.00000826,-0.00000842,0.00190938,0.00091180,0.00111824,
 0.12970764,0.22021451,0.00366353,-0.00011725,-0.00042898,0.00008812,-0
 .00008895,-0.00007042,-0.00084963,0.00031071,0.00005992,0.00031242,0.0
 0047693,0.00096878,0.00603574,0.01153718,0.00330263,-0.00002115,0.0002
 0522,-0.00003794,0.00024580,-0.00005362,-0.00014732,-0.04700359,-0.065
 52354,-0.07218955,-0.00003018,-0.00001764,-0.00000797,-0.00009254,0.00
 000309,-0.00001876,-0.00061507,0.00030378,-0.00001768,0.00002225,0.000
 00157,-0.00005222,0.00005069,0.00006742,0.00003957,0.00000729,-0.00001
 348,0.00000656,-0.00000925,0.00000142,-0.00000770,-0.01783730,-0.02457
 915,-0.00668209,0.04897300,0.06992835,0.07341681,0.00205310,-0.0007225
 2,-0.00012092,0.00005516,-0.00094548,0.00001708,-0.00836814,0.00114145
 ,0.00344941,-0.00047461,0.00046305,0.00008452,-0.00835322,0.02735417,-
 0.01349401,0.00128854,0.00187368,-0.00085817,0.00007558,-0.00003102,-0
 .00003595,-0.09280726,0.09348381,-0.03199515,-0.00060609,-0.00010186,0
 .00025068,0.00006501,0.00000185,-0.00000058,0.00080515,-0.00035818,0.0
 0042233,-0.00017654,-0.00001587,0.00014351,0.00003440,0.00001569,0.000
 00485,-0.00001947,0.00001127,0.00000318,-0.00003225,-0.00005395,0.0000
 1069,-0.00146330,0.00019211,0.00007426,0.00875652,-0.01585145,0.007084
 70,0.09920860,-0.00042125,0.00044090,-0.00009743,0.00026604,0.00049686
 ,0.00001541,0.00138086,0.00063695,-0.00096455,0.00024756,-0.00001247,-
 0.00003247,-0.00179647,-0.00370392,0.00154715,-0.00117437,-0.00003902,
 0.00038593,0.00003907,0.00000875,-0.00002459,0.09804826,-0.24742203,0.
 07139173,0.00009535,0.00000507,-0.00004672,0.00001269,0.00000090,-0.00
 002423,0.00041064,0.00014818,-0.00046686,0.00008855,-0.00000615,-0.000
 07785,0.00000958,0.00000273,0.00000768,-0.00000273,-0.00000442,0.00000
 011,0.00000068,0.00001433,0.00000478,-0.00143212,0.00124840,-0.0011763
 1,0.01084063,-0.01739872,0.00754605,-0.10660421,0.26557768,-0.00088115
 ,-0.00014039,0.00006413,0.00010273,0.00007492,-0.00007209,0.00368588,-
 0.00056324,-0.00046927,-0.00005735,-0.00020113,-0.00004040,0.00369628,
 -0.01244503,0.00333125,0.00021460,-0.00054411,0.00097468,-0.00002723,0
 .00002422,-0.00000888,-0.03379437,0.07325383,-0.07227881,0.00025446,0.
 00000698,-0.00015016,0.00002376,-0.00000532,-0.00005473,-0.00073599,-0
 .00017126,-0.00000698,-0.00008824,0.00001349,-0.00002085,-0.00000225,-
 0.00001555,-0.00000771,-0.00001415,0.00001275,-0.00001286,-0.00001060,
 -0.00000487,0.00002548,-0.01298717,0.02750595,-0.00670839,0.00553564,-
 0.00873478,0.00186142,0.03504730,-0.07800259,0.07353514,-0.00026074,-0
 .00024708,0.00008804,-0.00003144,-0.00100292,0.00101602,0.00107377,-0.
 00101561,0.00019540,0.00015352,-0.00014808,-0.00013446,-0.00017175,0.0
 0062084,-0.00022687,-0.00091895,-0.00050325,-0.01562990,-0.00002857,-0
 .00000002,0.00004749,0.00003725,-0.00005875,0.00006641,-0.04608128,0.0
 0058422,0.00803857,-0.00002358,-0.00004057,0.00004786,-0.00006073,-0.0
 0007652,0.00025116,-0.00041999,0.00224389,-0.00054423,-0.00001167,-0.0
 0001515,0.00001834,0.00003296,-0.00000127,-0.00000574,-0.00000357,0.00
 000946,-0.00001631,-0.00003922,0.00004295,0.00003067,-0.00002094,0.000
 00586,-0.00001627,0.00002468,-0.00001922,0.00000973,0.04540446,-0.0002
 7526,0.00015860,-0.00019256,-0.00014453,0.00290875,-0.00122800,-0.0019
 1892,0.00161333,-0.00144731,0.00039179,-0.00058310,0.00044278,0.000163
 84,-0.00022792,0.00036073,-0.00054233,0.00002349,0.03419229,-0.0000105
 1,0.00009626,-0.00013475,-0.00005546,0.00001333,-0.00011668,0.00063338
 ,-0.04714494,-0.01774866,-0.00010955,0.00004086,-0.00037572,-0.0000072
 4,0.00007507,-0.00027942,0.00222418,-0.00430085,0.00119255,-0.00000224
 ,-0.00001334,0.00000544,-0.00001920,-0.00007489,-0.00003510,0.00000677
 ,0.00003626,0.00000255,0.00006085,-0.00000271,-0.00001906,-0.00000804,
 -0.00000341,-0.00001017,-0.00001240,0.00000430,0.00001207,-0.00227835,
 0.04924092,0.00001476,-0.00001391,0.00006858,0.00035155,-0.00053294,0.
 00144550,0.00015136,-0.00053429,0.00138871,0.00003126,0.00007456,0.000
 16302,-0.00009791,0.00000481,0.00018080,0.00045069,-0.00095600,-0.0168
 2029,-0.00004053,0.00003125,0.00002863,0.00000195,0.00005801,0.0000257
 7,0.00624071,-0.01391737,-0.31733569,0.00007171,-0.00024408,0.00014646
 ,0.00013753,-0.00021353,0.00014591,-0.00102179,0.00225468,0.00055628,-
 0.00000127,-0.00000234,-0.00001277,0.00000119,0.00003602,0.00001861,0.
 00001120,0.00001086,0.00000575,-0.00002690,0.00002217,0.00001908,0.000
 00300,-0.00000068,-0.00001268,-0.00001768,-0.00000101,0.00000673,-0.00
 611415,0.01353966,0.34333201,0.00065713,0.00047056,0.00001007,0.000980
 13,-0.00079753,-0.00003634,-0.00107942,0.00384213,-0.00202205,-0.00028
 007,0.00030962,-0.00005946,-0.00010436,-0.00164739,0.00064369,-0.01212
 592,-0.00306296,0.00582083,0.00001343,0.00001716,-0.00001043,-0.000057
 25,0.00028302,-0.00012526,-0.29009952,0.02963535,0.07798317,0.00000293
 ,-0.00000981,-0.00002126,-0.00004388,0.00013128,-0.00011902,0.00017631
 ,0.00026263,-0.00058523,0.00002572,0.00002040,0.00000088,-0.00000844,0
 .00000116,-0.00000111,-0.00000168,-0.00000286,0.00000547,0.00001845,-0
 .00002229,0.00000411,0.00002839,-0.00001453,0.00000095,-0.00008846,0.0
 0002768,0.00003769,0.00128569,-0.00039416,-0.00114045,0.31375054,-0.00
 072898,-0.00010168,0.00001769,-0.00112137,0.00156248,-0.00017359,0.003
 63905,-0.00649724,0.00285956,0.00053772,-0.00020926,0.00007033,0.00136
 141,0.00132626,-0.00066418,0.02603511,0.00002005,-0.01217728,-0.000052
 57,0.00007042,-0.00004476,0.00008555,-0.00053480,0.00021679,0.02510189
 ,-0.05021841,-0.00691787,-0.00002003,0.00006679,-0.00001312,0.00002299
 ,-0.00013027,0.00010576,-0.00050614,0.00063888,0.00026619,-0.00003396,
 -0.00004380,0.00001184,0.00001442,-0.00001591,0.00000304,0.00000331,0.
 00003935,0.00000788,-0.00001847,0.00001306,-0.00001577,-0.00001995,0.0
 0000850,0.00001533,0.00018401,-0.00001412,-0.00007677,0.00123754,-0.00
 167118,-0.00026145,-0.03230836,0.05128033,0.00003570,0.00011836,-0.000
 07012,0.00016764,-0.00091101,0.00007771,-0.00171849,0.00322745,-0.0004
 3251,-0.00017612,-0.00011769,-0.00004265,-0.00057354,0.00003903,0.0009
 6262,-0.01296932,-0.00054347,0.00328874,0.00003228,-0.00001948,-0.0000
 0702,-0.00007517,0.00023875,-0.00014802,0.08034863,-0.00804857,-0.0722
 7093,-0.00001206,0.00001831,-0.00005195,0.00004439,-0.00008154,-0.0000
 1834,0.00004825,-0.00068665,-0.00001307,-0.00000141,-0.00001165,0.0000
 2557,0.00001685,-0.00000884,-0.00001290,-0.00001427,-0.00000776,-0.000
 00819,0.00000951,0.00001299,0.00000620,0.00000357,-0.00000848,-0.00000
 771,-0.00008505,0.00001003,0.00004019,0.03020483,-0.00316429,-0.006694
 13,-0.08523209,0.00760518,0.07348493,0.00008605,-0.00024983,-0.0000217
 7,-0.00054581,0.00316815,-0.00090507,0.00036629,-0.00058804,0.00016282
 ,0.00060503,0.00077582,0.00009588,0.00018059,0.00014331,-0.00001789,0.
 00620618,0.01016633,0.00540584,-0.00015197,0.00016898,-0.00008599,0.00
 002796,-0.00006676,0.00004007,-0.12613851,-0.11713892,-0.04604097,-0.0
 0001843,0.00000493,-0.00000537,0.00002313,-0.00003715,0.00002133,0.000
 33412,-0.00068840,0.00018572,-0.00000014,0.00000404,-0.00001237,-0.000
 00432,0.00000157,0.00000951,0.00005950,0.00005806,0.00003424,-0.000004
 73,0.00001130,-0.00000175,-0.00002089,0.00000604,-0.00000950,0.0000226
 1,-0.00001722,-0.00000955,0.00006009,0.00229737,0.00099378,-0.01304971
 ,-0.02341316,-0.01005415,0.13196294,0.00097430,0.00046131,0.00000643,0
 .00342937,-0.00725050,0.00351044,-0.00027143,0.00217207,-0.00008689,-0
 .00229396,0.00065261,-0.00094942,-0.00009540,-0.00067170,0.00009260,-0
 .01894228,-0.01823727,-0.01242955,0.00037034,-0.00045196,0.00024497,0.
 00000548,0.00005797,-0.00001901,-0.11259717,-0.21445118,-0.06340782,0.
 00010937,-0.00016642,0.00016555,-0.00002527,0.00004151,0.00001264,0.00
 008259,0.00065282,0.00058840,0.00000985,0.00003822,0.00000995,-0.00000
 349,0.00003527,-0.00001483,-0.00010098,-0.00016420,-0.00008037,-0.0000
 0228,-0.00001948,0.00000280,0.00006065,0.00000260,0.00000676,-0.000024
 17,0.00001580,0.00000084,0.00066202,-0.00018884,0.00064558,0.00325889,
 0.00441056,0.00233934,0.12539356,0.23306081,-0.00012256,0.00004703,-0.
 00007203,-0.00137294,0.00347026,-0.00048290,0.00055132,-0.00069902,0.0
 0007440,0.00037362,0.00045572,0.00097580,0.00020282,0.00005907,-0.0000
 4184,0.00895410,0.00938624,0.00332421,-0.00013495,0.00021748,-0.000151
 49,-0.00000771,-0.00003632,-0.00000814,-0.04677361,-0.06586089,-0.0722
 6442,0.00003134,-0.00008148,-0.00002167,-0.00000768,0.00002328,-0.0000
 5491,0.00051443,-0.00055714,-0.00001089,0.00000408,-0.00000888,-0.0000
 0790,-0.00001542,0.00000159,0.00000671,0.00004840,0.00007209,0.0000407
 8,-0.00000402,-0.00001852,-0.00001304,0.00000934,-0.00000673,0.0000253
 4,0.00001501,0.00000574,-0.00000790,-0.01732660,-0.02499633,-0.0066562
 8,0.00484584,0.00916521,0.00189159,0.05021520,0.06936159,0.07345458\\-
 0.00002545,-0.00003527,0.00000723,0.00002233,-0.00001268,-0.00001667,0
 .00001008,-0.00005960,-0.00000545,-0.00000217,0.00004950,-0.00000247,0
 .00003326,-0.00001035,-0.00001306,0.00000006,0.00002423,0.00000887,-0.
 00001421,-0.00001910,0.00002311,0.00000176,0.00000719,0.00000541,-0.00
 003136,0.00003041,0.00000313,-0.00000738,0.00002185,0.00002566,0.00000
 649,0.00000254,0.00002757,0.00001410,-0.00000972,0.00002632,0.00000982
 ,-0.00000778,-0.00002347,0.00000411,0.00000414,-0.00001108,-0.00000657
 ,0.00000463,-0.00000372,0.00000528,-0.00000113,-0.00001910,0.00000037,
 0.00000354,-0.00000066,-0.00000839,0.00000697,-0.00000345,-0.00001128,
 0.00000811,-0.00001155,0.00000649,-0.00000744,-0.00000920,-0.00000733,
 -0.00000006,-0.00000740\\\@


 ACHIEVEMENT--  THE MAN WHO ROWS THE BOAT GENERALLY 
                DOESN'T HAVE TIME TO ROCK IT.

                   -- FROM THE BACK OF A SUGAR PACKET
 Job cpu time:       0 days  2 hours 27 minutes 38.2 seconds.
 Elapsed time:       0 days  0 hours  9 minutes 16.4 seconds.
 File lengths (MBytes):  RWF=    154 Int=      0 D2E=      0 Chk=      8 Scr=      1
 Normal termination of Gaussian 16 at Sun Sep 21 09:47:32 2025.
