 Entering Gaussian System, Link 0=g16
 Input=PNAL0069.gjf
 Output=PNAL0069.log
 Initial command:
 /usr/local/g16/l1.exe "/dados_01/scratch/Gau-2599995.inp" -scrdir="/dados_01/scratch/"
 Entering Link 1 = /usr/local/g16/l1.exe PID=   2599996.
  
 Copyright (c) 1988-2017, Gaussian, Inc.  All Rights Reserved.
  
 This is part of the Gaussian(R) 16 program.  It is based on
 the Gaussian(R) 09 system (copyright 2009, Gaussian, Inc.),
 the Gaussian(R) 03 system (copyright 2003, Gaussian, Inc.),
 the Gaussian(R) 98 system (copyright 1998, Gaussian, Inc.),
 the Gaussian(R) 94 system (copyright 1995, Gaussian, Inc.),
 the Gaussian 92(TM) system (copyright 1992, Gaussian, Inc.),
 the Gaussian 90(TM) system (copyright 1990, Gaussian, Inc.),
 the Gaussian 88(TM) system (copyright 1988, Gaussian, Inc.),
 the Gaussian 86(TM) system (copyright 1986, Carnegie Mellon
 University), and the Gaussian 82(TM) system (copyright 1983,
 Carnegie Mellon University). Gaussian is a federally registered
 trademark of Gaussian, Inc.
  
 This software contains proprietary and confidential information,
 including trade secrets, belonging to Gaussian, Inc.
  
 This software is provided under written license and may be
 used, copied, transmitted, or stored only in accord with that
 written license.
  
 The following legend is applicable only to US Government
 contracts under FAR:
  
                    RESTRICTED RIGHTS LEGEND
  
 Use, reproduction and disclosure by the US Government is
 subject to restrictions as set forth in subparagraphs (a)
 and (c) of the Commercial Computer Software - Restricted
 Rights clause in FAR 52.227-19.
  
 Gaussian, Inc.
 340 Quinnipiac St., Bldg. 40, Wallingford CT 06492
  
  
 ---------------------------------------------------------------
 Warning -- This program may not be used in any manner that
 competes with the business of Gaussian, Inc. or will provide
 assistance to any competitor of Gaussian, Inc.  The licensee
 of this program is prohibited from giving any competitor of
 Gaussian, Inc. access to this program.  By using this program,
 the user acknowledges that Gaussian, Inc. is engaged in the
 business of creating and licensing software in the field of
 computational chemistry and represents and warrants to the
 licensee that it is not a competitor of Gaussian, Inc. and that
 it will not use this program in any manner prohibited above.
 ---------------------------------------------------------------
  

 Cite this work as:
 Gaussian 16, Revision B.01,
 M. J. Frisch, G. W. Trucks, H. B. Schlegel, G. E. Scuseria, 
 M. A. Robb, J. R. Cheeseman, G. Scalmani, V. Barone, 
 G. A. Petersson, H. Nakatsuji, X. Li, M. Caricato, A. V. Marenich, 
 J. Bloino, B. G. Janesko, R. Gomperts, B. Mennucci, H. P. Hratchian, 
 J. V. Ortiz, A. F. Izmaylov, J. L. Sonnenberg, D. Williams-Young, 
 F. Ding, F. Lipparini, F. Egidi, J. Goings, B. Peng, A. Petrone, 
 T. Henderson, D. Ranasinghe, V. G. Zakrzewski, J. Gao, N. Rega, 
 G. Zheng, W. Liang, M. Hada, M. Ehara, K. Toyota, R. Fukuda, 
 J. Hasegawa, M. Ishida, T. Nakajima, Y. Honda, O. Kitao, H. Nakai, 
 T. Vreven, K. Throssell, J. A. Montgomery, Jr., J. E. Peralta, 
 F. Ogliaro, M. J. Bearpark, J. J. Heyd, E. N. Brothers, K. N. Kudin, 
 V. N. Staroverov, T. A. Keith, R. Kobayashi, J. Normand, 
 K. Raghavachari, A. P. Rendell, J. C. Burant, S. S. Iyengar, 
 J. Tomasi, M. Cossi, J. M. Millam, M. Klene, C. Adamo, R. Cammi, 
 J. W. Ochterski, R. L. Martin, K. Morokuma, O. Farkas, 
 J. B. Foresman, and D. J. Fox, Gaussian, Inc., Wallingford CT, 2016.
 
 ******************************************
 Gaussian 16:  ES64L-G16RevB.01 20-Dec-2017
                10-Oct-2025 
 ******************************************
 %nprocs=16
 Will use up to   16 processors via shared memory.
 %mem=40GB
 %chk=PNAL0069.chk
 ----------------------------------------------------------------------
 # opt freq=noraman M08HX/6-311++G** scf=xqc Empiricaldispersion=pfd In
 t(Grid=ultraFine)
 ----------------------------------------------------------------------
 1/18=20,19=15,26=4,38=1/1,3;
 2/9=110,12=2,17=6,18=5,40=1/2;
 3/5=4,6=6,7=1111,11=2,25=1,30=1,71=1,74=-74,75=-5,124=11/1,2,3;
 4//1;
 5/5=2,8=3,13=1,38=5/2,8;
 6/7=2,8=2,9=2,10=2,28=1/1;
 7//1,2,3,16;
 1/18=20,19=15,26=4/3(2);
 2/9=110/2;
 99//99;
 2/9=110/2;
 3/5=4,6=6,7=1111,11=2,25=1,30=1,71=1,74=-74,75=-5,124=11/1,2,3;
 4/5=5,16=3,69=1/1;
 5/5=2,8=3,13=1,38=5/2,8;
 7//1,2,3,16;
 1/18=20,19=15,26=4/3(-5);
 2/9=110/2;
 6/7=2,8=2,9=2,10=2,19=2,28=1/1;
 99/9=1/99;
 --------
 PNAL0069
 --------
 Symbolic Z-matrix:
 Charge =  0 Multiplicity = 1
 O                     1.1992    0.6585    1.2039 
 O                    -1.1992   -0.6585    1.204 
 C                     0.7814    0.0208   -0.0143 
 C                    -0.7813   -0.0207   -0.0143 
 C                     1.4102   -1.3821   -0.0143 
 C                     1.3676    0.8359   -1.1753 
 C                    -1.4103    1.3821   -0.0143 
 C                    -1.3675   -0.8359   -1.1754 
 H                     1.0332   -1.9851    0.819 
 H                     1.2221   -1.918    -0.9493 
 H                     2.4964   -1.3215    0.1237 
 H                     1.0737    0.4346   -2.1494 
 H                     1.068     1.8875   -1.1197 
 H                     2.4635    0.8393   -1.1303 
 H                    -1.237     1.911    -0.9563 
 H                    -2.4937    1.3177    0.1424 
 H                    -1.0218    1.9935    0.8074 
 H                    -1.0632   -1.8863   -1.1242 
 H                    -2.463    -0.8452   -1.121 
 H                    -1.0819   -0.4303   -2.15 
 H                     2.1706    0.702     1.2059 
 H                    -0.826    -0.1518    1.9456 
 

 GradGradGradGradGradGradGradGradGradGradGradGradGradGradGradGradGradGrad
 Berny optimization.
 Initialization pass.
                           ----------------------------
                           !    Initial Parameters    !
                           ! (Angstroms and Degrees)  !
 --------------------------                            --------------------------
 ! Name  Definition              Value          Derivative Info.                !
 --------------------------------------------------------------------------------
 ! R1    R(1,3)                  1.4371         estimate D2E/DX2                !
 ! R2    R(1,21)                 0.9724         estimate D2E/DX2                !
 ! R3    R(2,4)                  1.4372         estimate D2E/DX2                !
 ! R4    R(2,22)                 0.9726         estimate D2E/DX2                !
 ! R5    R(3,4)                  1.5633         estimate D2E/DX2                !
 ! R6    R(3,5)                  1.5374         estimate D2E/DX2                !
 ! R7    R(3,6)                  1.5349         estimate D2E/DX2                !
 ! R8    R(4,7)                  1.5374         estimate D2E/DX2                !
 ! R9    R(4,8)                  1.535          estimate D2E/DX2                !
 ! R10   R(5,9)                  1.0955         estimate D2E/DX2                !
 ! R11   R(5,10)                 1.094          estimate D2E/DX2                !
 ! R12   R(5,11)                 1.0966         estimate D2E/DX2                !
 ! R13   R(6,12)                 1.0938         estimate D2E/DX2                !
 ! R14   R(6,13)                 1.0949         estimate D2E/DX2                !
 ! R15   R(6,14)                 1.0968         estimate D2E/DX2                !
 ! R16   R(7,15)                 1.0941         estimate D2E/DX2                !
 ! R17   R(7,16)                 1.0966         estimate D2E/DX2                !
 ! R18   R(7,17)                 1.0954         estimate D2E/DX2                !
 ! R19   R(8,18)                 1.0948         estimate D2E/DX2                !
 ! R20   R(8,19)                 1.0969         estimate D2E/DX2                !
 ! R21   R(8,20)                 1.0936         estimate D2E/DX2                !
 ! A1    A(3,1,21)             108.1816         estimate D2E/DX2                !
 ! A2    A(4,2,22)             107.672          estimate D2E/DX2                !
 ! A3    A(1,3,4)              107.602          estimate D2E/DX2                !
 ! A4    A(1,3,5)              106.6198         estimate D2E/DX2                !
 ! A5    A(1,3,6)              107.1281         estimate D2E/DX2                !
 ! A6    A(4,3,5)              112.6214         estimate D2E/DX2                !
 ! A7    A(4,3,6)              113.3206         estimate D2E/DX2                !
 ! A8    A(5,3,6)              109.1709         estimate D2E/DX2                !
 ! A9    A(2,4,3)              107.6043         estimate D2E/DX2                !
 ! A10   A(2,4,7)              106.6162         estimate D2E/DX2                !
 ! A11   A(2,4,8)              107.1256         estimate D2E/DX2                !
 ! A12   A(3,4,7)              112.6297         estimate D2E/DX2                !
 ! A13   A(3,4,8)              113.3186         estimate D2E/DX2                !
 ! A14   A(7,4,8)              109.1678         estimate D2E/DX2                !
 ! A15   A(3,5,9)              111.1943         estimate D2E/DX2                !
 ! A16   A(3,5,10)             112.1287         estimate D2E/DX2                !
 ! A17   A(3,5,11)             110.7751         estimate D2E/DX2                !
 ! A18   A(9,5,10)             108.742          estimate D2E/DX2                !
 ! A19   A(9,5,11)             105.9956         estimate D2E/DX2                !
 ! A20   A(10,5,11)            107.7542         estimate D2E/DX2                !
 ! A21   A(3,6,12)             112.0978         estimate D2E/DX2                !
 ! A22   A(3,6,13)             111.5394         estimate D2E/DX2                !
 ! A23   A(3,6,14)             110.6221         estimate D2E/DX2                !
 ! A24   A(12,6,13)            108.9113         estimate D2E/DX2                !
 ! A25   A(12,6,14)            107.8278         estimate D2E/DX2                !
 ! A26   A(13,6,14)            105.5661         estimate D2E/DX2                !
 ! A27   A(4,7,15)             112.1035         estimate D2E/DX2                !
 ! A28   A(4,7,16)             110.5265         estimate D2E/DX2                !
 ! A29   A(4,7,17)             111.3574         estimate D2E/DX2                !
 ! A30   A(15,7,16)            107.9332         estimate D2E/DX2                !
 ! A31   A(15,7,17)            108.6536         estimate D2E/DX2                !
 ! A32   A(16,7,17)            106.0209         estimate D2E/DX2                !
 ! A33   A(4,8,18)             111.593          estimate D2E/DX2                !
 ! A34   A(4,8,19)             110.3886         estimate D2E/DX2                !
 ! A35   A(4,8,20)             112.173          estimate D2E/DX2                !
 ! A36   A(18,8,19)            105.4946         estimate D2E/DX2                !
 ! A37   A(18,8,20)            108.962          estimate D2E/DX2                !
 ! A38   A(19,8,20)            107.9491         estimate D2E/DX2                !
 ! D1    D(21,1,3,4)          -179.0806         estimate D2E/DX2                !
 ! D2    D(21,1,3,5)            59.8668         estimate D2E/DX2                !
 ! D3    D(21,1,3,6)           -56.9151         estimate D2E/DX2                !
 ! D4    D(22,2,4,3)            57.407          estimate D2E/DX2                !
 ! D5    D(22,2,4,7)           -63.6547         estimate D2E/DX2                !
 ! D6    D(22,2,4,8)           179.57           estimate D2E/DX2                !
 ! D7    D(1,3,4,2)            -54.4251         estimate D2E/DX2                !
 ! D8    D(1,3,4,7)             62.7883         estimate D2E/DX2                !
 ! D9    D(1,3,4,8)           -172.6665         estimate D2E/DX2                !
 ! D10   D(5,3,4,2)             62.7866         estimate D2E/DX2                !
 ! D11   D(5,3,4,7)            180.0            estimate D2E/DX2                !
 ! D12   D(5,3,4,8)            -55.4548         estimate D2E/DX2                !
 ! D13   D(6,3,4,2)           -172.6693         estimate D2E/DX2                !
 ! D14   D(6,3,4,7)            -55.4559         estimate D2E/DX2                !
 ! D15   D(6,3,4,8)             69.0893         estimate D2E/DX2                !
 ! D16   D(1,3,5,9)             63.1221         estimate D2E/DX2                !
 ! D17   D(1,3,5,10)          -174.8927         estimate D2E/DX2                !
 ! D18   D(1,3,5,11)           -54.4724         estimate D2E/DX2                !
 ! D19   D(4,3,5,9)            -54.6704         estimate D2E/DX2                !
 ! D20   D(4,3,5,10)            67.3148         estimate D2E/DX2                !
 ! D21   D(4,3,5,11)          -172.2649         estimate D2E/DX2                !
 ! D22   D(6,3,5,9)            178.5369         estimate D2E/DX2                !
 ! D23   D(6,3,5,10)           -59.4779         estimate D2E/DX2                !
 ! D24   D(6,3,5,11)            60.9424         estimate D2E/DX2                !
 ! D25   D(1,3,6,12)          -178.3743         estimate D2E/DX2                !
 ! D26   D(1,3,6,13)           -55.9411         estimate D2E/DX2                !
 ! D27   D(1,3,6,14)            61.2385         estimate D2E/DX2                !
 ! D28   D(4,3,6,12)           -59.8558         estimate D2E/DX2                !
 ! D29   D(4,3,6,13)            62.5774         estimate D2E/DX2                !
 ! D30   D(4,3,6,14)           179.7571         estimate D2E/DX2                !
 ! D31   D(5,3,6,12)            66.5378         estimate D2E/DX2                !
 ! D32   D(5,3,6,13)          -171.0291         estimate D2E/DX2                !
 ! D33   D(5,3,6,14)           -53.8494         estimate D2E/DX2                !
 ! D34   D(2,4,7,15)          -173.8845         estimate D2E/DX2                !
 ! D35   D(2,4,7,16)           -53.4254         estimate D2E/DX2                !
 ! D36   D(2,4,7,17)            64.145          estimate D2E/DX2                !
 ! D37   D(3,4,7,15)            68.3179         estimate D2E/DX2                !
 ! D38   D(3,4,7,16)          -171.223          estimate D2E/DX2                !
 ! D39   D(3,4,7,17)           -53.6527         estimate D2E/DX2                !
 ! D40   D(8,4,7,15)           -58.476          estimate D2E/DX2                !
 ! D41   D(8,4,7,16)            61.983          estimate D2E/DX2                !
 ! D42   D(8,4,7,17)           179.5534         estimate D2E/DX2                !
 ! D43   D(2,4,8,18)           -56.3053         estimate D2E/DX2                !
 ! D44   D(2,4,8,19)            60.6706         estimate D2E/DX2                !
 ! D45   D(2,4,8,20)          -178.8988         estimate D2E/DX2                !
 ! D46   D(3,4,8,18)            62.2132         estimate D2E/DX2                !
 ! D47   D(3,4,8,19)           179.1891         estimate D2E/DX2                !
 ! D48   D(3,4,8,20)           -60.3802         estimate D2E/DX2                !
 ! D49   D(7,4,8,18)          -171.3861         estimate D2E/DX2                !
 ! D50   D(7,4,8,19)           -54.4102         estimate D2E/DX2                !
 ! D51   D(7,4,8,20)            66.0205         estimate D2E/DX2                !
 --------------------------------------------------------------------------------
 Trust Radius=3.00D-01 FncErr=1.00D-07 GrdErr=1.00D-06 EigMax=2.50D+02 EigMin=1.00D-04
 Number of steps in this run=    120 maximum allowed number of steps=    132.
 GradGradGradGradGradGradGradGradGradGradGradGradGradGradGradGradGradGrad

                          Input orientation:                          
 ---------------------------------------------------------------------
 Center     Atomic      Atomic             Coordinates (Angstroms)
 Number     Number       Type             X           Y           Z
 ---------------------------------------------------------------------
      1          8           0        1.199200    0.658500    1.203900
      2          8           0       -1.199200   -0.658500    1.204000
      3          6           0        0.781400    0.020800   -0.014300
      4          6           0       -0.781300   -0.020700   -0.014300
      5          6           0        1.410200   -1.382100   -0.014300
      6          6           0        1.367600    0.835900   -1.175300
      7          6           0       -1.410300    1.382100   -0.014300
      8          6           0       -1.367500   -0.835900   -1.175400
      9          1           0        1.033200   -1.985100    0.819000
     10          1           0        1.222100   -1.918000   -0.949300
     11          1           0        2.496400   -1.321500    0.123700
     12          1           0        1.073700    0.434600   -2.149400
     13          1           0        1.068000    1.887500   -1.119700
     14          1           0        2.463500    0.839300   -1.130300
     15          1           0       -1.237000    1.911000   -0.956300
     16          1           0       -2.493700    1.317700    0.142400
     17          1           0       -1.021800    1.993500    0.807400
     18          1           0       -1.063200   -1.886300   -1.124200
     19          1           0       -2.463000   -0.845200   -1.121000
     20          1           0       -1.081900   -0.430300   -2.150000
     21          1           0        2.170600    0.702000    1.205900
     22          1           0       -0.826000   -0.151800    1.945600
 ---------------------------------------------------------------------
                    Distance matrix (angstroms):
                    1          2          3          4          5
     1  O    0.000000
     2  O    2.736204   0.000000
     3  C    1.437091   2.422495   0.000000
     4  C    2.422334   1.437249   1.563251   0.000000
     5  C    2.385913   2.969313   1.537374   2.579938   0.000000
     6  C    2.391740   3.805622   1.534907   2.588331   2.503849
     7  C    2.969360   2.385973   2.580056   1.537364   3.949180
     8  C    3.805555   2.391932   2.588409   1.535036   3.059756
     9  H    2.676626   2.625205   2.186647   2.801012   1.095503
    10  H    3.357849   3.476454   2.197132   2.913346   1.093981
    11  H    2.601915   3.906927   2.182209   3.529085   1.096607
    12  H    3.363109   4.195978   2.194384   2.864782   2.823523
    13  H    2.631876   4.125760   2.188291   2.878028   3.468327
    14  H    2.660758   4.594315   2.178270   3.537483   2.699910
    15  H    3.488594   3.357180   2.921328   2.196928   4.328919
    16  H    3.898569   2.589998   3.526015   2.179033   4.749096
    17  H    2.621503   2.687353   2.796116   2.188614   4.240812
    18  H    4.124865   2.635622   2.876014   2.189020   2.757499
    19  H    4.591076   2.652861   3.535657   2.175477   4.063831
    20  H    4.199708   3.363800   2.869946   2.195301   3.417265
    21  H    0.972376   3.634077   1.970482   3.274889   2.531910
    22  H    2.303940   0.972622   2.540617   1.964788   3.217986
                    6          7          8          9         10
     6  C    0.000000
     7  C    3.059899   0.000000
     8  C    3.205571   2.503899   0.000000
     9  H    3.470893   4.243008   3.325906   0.000000
    10  H    2.766986   4.323704   2.815686   1.779627   0.000000
    11  H    2.759704   4.752978   4.105264   1.750646   1.769458
    12  H    1.093750   3.409789   2.919298   3.829881   2.645182
    13  H    1.094858   2.760310   3.653994   4.330912   3.812429
    14  H    1.096829   4.067728   4.181494   3.717898   3.029280
    15  H    2.826259   1.094135   2.758713   4.846142   4.550655
    16  H    4.108297   1.096566   2.764582   4.879067   5.046656
    17  H    3.313664   1.095415   3.472248   4.477993   4.839516
    18  H    3.649900   3.469120   1.094788   2.860189   2.292202
    19  H    4.183604   2.700709   1.096889   4.157690   3.841919
    20  H    2.924612   2.820258   1.093583   3.963081   2.993885
    21  H    2.516516   3.843731   4.533638   2.943446   3.522632
    22  H    3.940488   2.556455   3.240657   2.843737   3.961644
                   11         12         13         14         15
    11  H    0.000000
    12  H    3.205456   0.000000
    13  H    3.726131   1.780796   0.000000
    14  H    2.498531   1.770280   1.745353   0.000000
    15  H    5.055070   2.990415   2.310904   3.856490   0.000000
    16  H    5.645071   4.331115   3.821423   5.140279   1.771565
    17  H    4.882049   3.945118   2.844682   4.151406   1.778695
    18  H    3.814054   3.317221   4.334005   4.457190   3.804981
    19  H    5.135347   3.899198   4.464931   5.206537   3.021066
    20  H    4.332226   2.322642   3.325024   3.901478   2.632615
    21  H    2.317726   3.540160   2.833646   2.358489   4.212900
    22  H    3.965584   4.552115   4.140295   4.611318   3.584005
                   16         17         18         19         20
    16  H    0.000000
    17  H    1.750834   0.000000
    18  H    3.730445   4.334240   0.000000
    19  H    2.505047   3.722096   1.744517   0.000000
    20  H    3.209950   3.824217   1.781166   1.771559   0.000000
    21  H    4.823465   3.466726   4.752486   5.410965   4.808630
    22  H    2.862199   2.436421   3.533897   3.544659   4.113026
                   21         22
    21  H    0.000000
    22  H    3.202459   0.000000
 Stoichiometry    C6H14O2
 Framework group  C1[X(C6H14O2)]
 Deg. of freedom    60
 Full point group                 C1      NOp   1
 Largest Abelian subgroup         C1      NOp   1
 Largest concise Abelian subgroup C1      NOp   1
                         Standard orientation:                         
 ---------------------------------------------------------------------
 Center     Atomic      Atomic             Coordinates (Angstroms)
 Number     Number       Type             X           Y           Z
 ---------------------------------------------------------------------
      1          8           0        1.181627   -0.850910   -1.082778
      2          8           0       -1.176560    0.515027   -1.327691
      3          6           0        0.760216   -0.032244    0.020594
      4          6           0       -0.800316    0.050096   -0.020800
      5          6           0        1.429922    1.338673   -0.168087
      6          6           0        1.300505   -0.685302    1.300259
      7          6           0       -1.470218   -1.320717    0.167861
      8          6           0       -1.383740    1.040475    0.996599
      9          1           0        1.086376    1.824015   -1.088166
     10          1           0        1.240337    2.009456    0.675063
     11          1           0        2.516244    1.229993   -0.271235
     12          1           0        1.000497   -0.139170    2.199161
     13          1           0        0.971172   -1.725540    1.390580
     14          1           0        2.396477   -0.724159    1.281055
     15          1           0       -1.330088   -1.711602    1.180138
     16          1           0       -2.548155   -1.251150   -0.021001
     17          1           0       -1.084682   -2.055015   -0.547750
     18          1           0       -1.047761    2.063892    0.800908
     19          1           0       -2.477292    1.070721    0.916629
     20          1           0       -1.128355    0.773305    2.025833
     21          1           0        2.151195   -0.919893   -1.056465
     22          1           0       -0.804721   -0.103682   -1.979556
 ---------------------------------------------------------------------
 Rotational constants (GHZ):           2.4400341           1.7102779           1.6944315
 Standard basis: 6-311++G(d,p) (5D, 7F)
 There are   282 symmetry adapted cartesian basis functions of A   symmetry.
 There are   274 symmetry adapted basis functions of A   symmetry.
   274 basis functions,   414 primitive gaussians,   282 cartesian basis functions
    33 alpha electrons       33 beta electrons
       nuclear repulsion energy       442.1126795649 Hartrees.
 NAtoms=   22 NActive=   22 NUniq=   22 SFac= 1.00D+00 NAtFMM=   60 NAOKFM=F Big=F
 Integral buffers will be    131072 words long.
 Raffenetti 2 integral format.
 Two-electron integral symmetry is turned on.
 R6APFD:  NTU= -4 IXU= 1 FactS= 1.050
 Nuclear repulsion after empirical dispersion term =      442.0942954768 Hartrees.
 One-electron integrals computed using PRISM.
 NBasis=   274 RedAO= T EigKep=  8.85D-06  NBF=   274
 NBsUse=   274 1.00D-06 EigRej= -1.00D+00 NBFU=   274
 ExpMin= 3.60D-02 ExpMax= 8.59D+03 ExpMxC= 1.30D+03 IAcc=3 IRadAn=         5 AccDes= 0.00D+00
 Harris functional with IExCor= 1009 and IRadAn=       5 diagonalized for initial guess.
 HarFok:  IExCor= 1009 AccDes= 0.00D+00 IRadAn=         5 IDoV= 1 UseB2=F ITyADJ=14
 ICtDFT=  3500011 ScaDFX=  1.000000  1.000000  1.000000  1.000000
 FoFCou: FMM=F IPFlag=           0 FMFlag=      100000 FMFlg1=           0
         NFxFlg=           0 DoJE=T BraDBF=F KetDBF=T FulRan=T
         wScrn=  0.000000 ICntrl=       500 IOpCl=  0 I1Cent=   200000004 NGrid=           0
         NMat0=    1 NMatS0=      1 NMatT0=    0 NMatD0=    1 NMtDS0=    0 NMtDT0=    0
 Petite list used in FoFCou.
 Requested convergence on RMS density matrix=1.00D-08 within  32 cycles.
 Requested convergence on MAX density matrix=1.00D-06.
 Requested convergence on             energy=1.00D-06.
 No special actions if energy rises.
 SCF Done:  E(RM08HX) =  -387.544182992     A.U. after   13 cycles
            NFock= 13  Conv=0.27D-08     -V/T= 2.0052
 QCSCF skips out because SCF is already converged.

 **********************************************************************

            Population analysis using the SCF Density.

 **********************************************************************

 Orbital symmetries:
       Occupied  (A) (A) (A) (A) (A) (A) (A) (A) (A) (A) (A) (A)
                 (A) (A) (A) (A) (A) (A) (A) (A) (A) (A) (A) (A)
                 (A) (A) (A) (A) (A) (A) (A) (A) (A)
       Virtual   (A) (A) (A) (A) (A) (A) (A) (A) (A) (A) (A) (A)
                 (A) (A) (A) (A) (A) (A) (A) (A) (A) (A) (A) (A)
                 (A) (A) (A) (A) (A) (A) (A) (A) (A) (A) (A) (A)
                 (A) (A) (A) (A) (A) (A) (A) (A) (A) (A) (A) (A)
                 (A) (A) (A) (A) (A) (A) (A) (A) (A) (A) (A) (A)
                 (A) (A) (A) (A) (A) (A) (A) (A) (A) (A) (A) (A)
                 (A) (A) (A) (A) (A) (A) (A) (A) (A) (A) (A) (A)
                 (A) (A) (A) (A) (A) (A) (A) (A) (A) (A) (A) (A)
                 (A) (A) (A) (A) (A) (A) (A) (A) (A) (A) (A) (A)
                 (A) (A) (A) (A) (A) (A) (A) (A) (A) (A) (A) (A)
                 (A) (A) (A) (A) (A) (A) (A) (A) (A) (A) (A) (A)
                 (A) (A) (A) (A) (A) (A) (A) (A) (A) (A) (A) (A)
                 (A) (A) (A) (A) (A) (A) (A) (A) (A) (A) (A) (A)
                 (A) (A) (A) (A) (A) (A) (A) (A) (A) (A) (A) (A)
                 (A) (A) (A) (A) (A) (A) (A) (A) (A) (A) (A) (A)
                 (A) (A) (A) (A) (A) (A) (A) (A) (A) (A) (A) (A)
                 (A) (A) (A) (A) (A) (A) (A) (A) (A) (A) (A) (A)
                 (A) (A) (A) (A) (A) (A) (A) (A) (A) (A) (A) (A)
                 (A) (A) (A) (A) (A) (A) (A) (A) (A) (A) (A) (A)
                 (A) (A) (A) (A) (A) (A) (A) (A) (A) (A) (A) (A)
                 (A)
 The electronic state is 1-A.
 Alpha  occ. eigenvalues --  -19.61400 -19.59586 -10.59765 -10.59464 -10.52501
 Alpha  occ. eigenvalues --  -10.51924 -10.51801 -10.51268  -1.15652  -1.12400
 Alpha  occ. eigenvalues --   -0.90653  -0.84895  -0.79776  -0.77999  -0.72090
 Alpha  occ. eigenvalues --   -0.64551  -0.58172  -0.57347  -0.53937  -0.51449
 Alpha  occ. eigenvalues --   -0.50904  -0.49495  -0.46870  -0.46488  -0.45146
 Alpha  occ. eigenvalues --   -0.44300  -0.43499  -0.43030  -0.42203  -0.40251
 Alpha  occ. eigenvalues --   -0.38299  -0.35547  -0.33895
 Alpha virt. eigenvalues --   -0.03328  -0.01705  -0.00975  -0.00703   0.00931
 Alpha virt. eigenvalues --    0.01155   0.01569   0.01648   0.01974   0.04075
 Alpha virt. eigenvalues --    0.04385   0.05148   0.05582   0.05911   0.06314
 Alpha virt. eigenvalues --    0.06590   0.08947   0.09708   0.10474   0.10665
 Alpha virt. eigenvalues --    0.11235   0.11885   0.12105   0.12307   0.12665
 Alpha virt. eigenvalues --    0.12803   0.12829   0.13857   0.14182   0.14285
 Alpha virt. eigenvalues --    0.14988   0.15230   0.15956   0.16524   0.17349
 Alpha virt. eigenvalues --    0.17837   0.18878   0.20054   0.20577   0.21623
 Alpha virt. eigenvalues --    0.22562   0.22915   0.23397   0.24477   0.24983
 Alpha virt. eigenvalues --    0.25243   0.26416   0.26922   0.28112   0.28685
 Alpha virt. eigenvalues --    0.29551   0.29951   0.31198   0.31278   0.31722
 Alpha virt. eigenvalues --    0.32434   0.32908   0.33854   0.34352   0.36037
 Alpha virt. eigenvalues --    0.37433   0.38123   0.39706   0.40601   0.41195
 Alpha virt. eigenvalues --    0.41430   0.44414   0.46422   0.46837   0.49939
 Alpha virt. eigenvalues --    0.50911   0.53421   0.55328   0.56369   0.57173
 Alpha virt. eigenvalues --    0.58830   0.59370   0.61230   0.62642   0.64186
 Alpha virt. eigenvalues --    0.65286   0.66443   0.67223   0.68195   0.69074
 Alpha virt. eigenvalues --    0.70288   0.70706   0.71240   0.72515   0.73057
 Alpha virt. eigenvalues --    0.74281   0.75468   0.76363   0.76848   0.77875
 Alpha virt. eigenvalues --    0.79179   0.81327   0.83971   0.84810   0.92160
 Alpha virt. eigenvalues --    0.93509   1.00259   1.01658   1.05411   1.09849
 Alpha virt. eigenvalues --    1.11830   1.13024   1.17073   1.20608   1.21394
 Alpha virt. eigenvalues --    1.22523   1.24015   1.29563   1.30800   1.33812
 Alpha virt. eigenvalues --    1.34932   1.38576   1.40287   1.43061   1.45427
 Alpha virt. eigenvalues --    1.49256   1.49673   1.50311   1.51024   1.53304
 Alpha virt. eigenvalues --    1.54136   1.55659   1.56166   1.57009   1.58551
 Alpha virt. eigenvalues --    1.59696   1.59948   1.61792   1.64012   1.64945
 Alpha virt. eigenvalues --    1.66937   1.68224   1.69585   1.71414   1.72309
 Alpha virt. eigenvalues --    1.74416   1.74523   1.75983   1.79889   1.81428
 Alpha virt. eigenvalues --    1.83340   1.85799   1.86306   1.86901   1.89929
 Alpha virt. eigenvalues --    1.92968   1.94932   1.96164   1.98502   2.00486
 Alpha virt. eigenvalues --    2.03365   2.04987   2.08309   2.11577   2.15424
 Alpha virt. eigenvalues --    2.18077   2.18970   2.20403   2.23591   2.24974
 Alpha virt. eigenvalues --    2.29999   2.31447   2.36415   2.36711   2.39807
 Alpha virt. eigenvalues --    2.41552   2.48876   2.50605   2.51947   2.53178
 Alpha virt. eigenvalues --    2.53705   2.54314   2.56620   2.57645   2.58383
 Alpha virt. eigenvalues --    2.59108   2.60700   2.62441   2.63631   2.65618
 Alpha virt. eigenvalues --    2.66589   2.68030   2.68486   2.70432   2.71677
 Alpha virt. eigenvalues --    2.75562   2.76516   2.78797   2.80947   2.87307
 Alpha virt. eigenvalues --    2.89611   2.94338   2.98659   3.02284   3.09536
 Alpha virt. eigenvalues --    3.13202   3.14531   3.18409   3.20198   3.24984
 Alpha virt. eigenvalues --    3.25903   3.30945   3.32941   3.38458   3.44251
 Alpha virt. eigenvalues --    3.54918   3.73860   3.78386   3.79581   3.81196
 Alpha virt. eigenvalues --    3.83076   3.83924   3.86009   3.87701   3.88820
 Alpha virt. eigenvalues --    3.95755   3.98459   4.18433   4.22232   4.33095
 Alpha virt. eigenvalues --    4.36436   4.42636   5.28192   5.32058   5.56063
 Alpha virt. eigenvalues --    5.57194   5.75123   5.76494  23.78764  23.79315
 Alpha virt. eigenvalues --   24.02854  24.03190  24.03628  24.04786  49.97336
 Alpha virt. eigenvalues --   50.00747
          Condensed to atoms (all electrons):
               1          2          3          4          5          6
     1  O    8.055641  -0.021591   0.242773  -0.084007  -0.019836  -0.154309
     2  O   -0.021591   7.868098   0.063173   0.428847  -0.102181   0.041125
     3  C    0.242773   0.063173   9.406403  -2.740760  -1.003054  -0.018146
     4  C   -0.084007   0.428847  -2.740760  12.026826  -0.057189  -0.905659
     5  C   -0.019836  -0.102181  -1.003054  -0.057189   7.240670  -0.503156
     6  C   -0.154309   0.041125  -0.018146  -0.905659  -0.503156   6.626508
     7  C   -0.125811  -0.096815   1.330427  -2.247995  -0.583867   0.432993
     8  C    0.094547  -0.291783  -0.934995  -0.023820   0.547000  -0.023789
     9  H   -0.009963   0.010362  -0.066406  -0.070463   0.473483   0.015009
    10  H    0.012990   0.005973   0.034903  -0.039557   0.336741  -0.019475
    11  H   -0.017290  -0.006345  -0.008391   0.057912   0.370657  -0.041101
    12  H    0.009300  -0.003106  -0.022699   0.039393  -0.057944   0.388383
    13  H   -0.013832  -0.004903  -0.108232   0.019893   0.000571   0.435153
    14  H   -0.008819   0.000843   0.019972   0.024732  -0.033474   0.380327
    15  H    0.005237   0.017116  -0.023182  -0.068395   0.018197   0.021061
    16  H   -0.005570  -0.015420   0.015395  -0.019812  -0.015074  -0.000943
    17  H    0.014532  -0.007931  -0.012946  -0.034804   0.002833  -0.011196
    18  H   -0.001188  -0.012985  -0.015542  -0.091739   0.012358   0.034097
    19  H   -0.001242  -0.011728   0.035575  -0.079298  -0.010696   0.004317
    20  H    0.000176   0.012663  -0.002805   0.052100   0.027203  -0.058946
    21  H    0.216680   0.002323   0.176184  -0.070180  -0.096672  -0.008119
    22  H   -0.005561   0.242913  -0.024812   0.000200  -0.011696   0.026146
               7          8          9         10         11         12
     1  O   -0.125811   0.094547  -0.009963   0.012990  -0.017290   0.009300
     2  O   -0.096815  -0.291783   0.010362   0.005973  -0.006345  -0.003106
     3  C    1.330427  -0.934995  -0.066406   0.034903  -0.008391  -0.022699
     4  C   -2.247995  -0.023820  -0.070463  -0.039557   0.057912   0.039393
     5  C   -0.583867   0.547000   0.473483   0.336741   0.370657  -0.057944
     6  C    0.432993  -0.023789   0.015009  -0.019475  -0.041101   0.388383
     7  C    8.022045  -1.302773   0.003445   0.017373  -0.009383   0.014249
     8  C   -1.302773   7.356597  -0.006049   0.005303   0.008895  -0.024119
     9  H    0.003445  -0.006049   0.449666  -0.024075  -0.037943  -0.002376
    10  H    0.017373   0.005303  -0.024075   0.534038  -0.055779  -0.002639
    11  H   -0.009383   0.008895  -0.037943  -0.055779   0.558181   0.004764
    12  H    0.014249  -0.024119  -0.002376  -0.002639   0.004764   0.545771
    13  H   -0.008950   0.014342  -0.004021  -0.003734   0.005045  -0.036379
    14  H   -0.002365   0.000699   0.004020   0.002767  -0.005502  -0.050929
    15  H    0.369079   0.016070   0.000593   0.002787  -0.001261  -0.003764
    16  H    0.403774  -0.008660  -0.001787  -0.000586   0.001408  -0.000791
    17  H    0.435936  -0.012193   0.003186  -0.000172  -0.001352   0.001272
    18  H    0.008166   0.402227  -0.002005  -0.008683   0.002459   0.000809
    19  H   -0.001304   0.431310  -0.000801  -0.000651   0.000669   0.002572
    20  H   -0.071438   0.380056   0.001523  -0.000173  -0.001194  -0.013708
    21  H    0.040352  -0.009145   0.000659   0.002172  -0.008264   0.002807
    22  H   -0.029084   0.052365   0.000820  -0.001936   0.001876   0.000755
              13         14         15         16         17         18
     1  O   -0.013832  -0.008819   0.005237  -0.005570   0.014532  -0.001188
     2  O   -0.004903   0.000843   0.017116  -0.015420  -0.007931  -0.012985
     3  C   -0.108232   0.019972  -0.023182   0.015395  -0.012946  -0.015542
     4  C    0.019893   0.024732  -0.068395  -0.019812  -0.034804  -0.091739
     5  C    0.000571  -0.033474   0.018197  -0.015074   0.002833   0.012358
     6  C    0.435153   0.380327   0.021061  -0.000943  -0.011196   0.034097
     7  C   -0.008950  -0.002365   0.369079   0.403774   0.435936   0.008166
     8  C    0.014342   0.000699   0.016070  -0.008660  -0.012193   0.402227
     9  H   -0.004021   0.004020   0.000593  -0.001787   0.003186  -0.002005
    10  H   -0.003734   0.002767   0.002787  -0.000586  -0.000172  -0.008683
    11  H    0.005045  -0.005502  -0.001261   0.001408  -0.001352   0.002459
    12  H   -0.036379  -0.050929  -0.003764  -0.000791   0.001272   0.000809
    13  H    0.518507  -0.043992  -0.010506   0.005308  -0.005280   0.001389
    14  H   -0.043992   0.531980  -0.000050  -0.000325   0.000866  -0.001112
    15  H   -0.010506  -0.000050   0.544063  -0.043656  -0.034080   0.001137
    16  H    0.005308  -0.000325  -0.043656   0.477246  -0.036579  -0.000649
    17  H   -0.005280   0.000866  -0.034080  -0.036579   0.480311  -0.003950
    18  H    0.001389  -0.001112   0.001137  -0.000649  -0.003950   0.522953
    19  H   -0.002120   0.000643   0.004259  -0.002057   0.001832  -0.027104
    20  H    0.003914   0.000424  -0.007065   0.007586  -0.001720  -0.052054
    21  H    0.002549  -0.013178   0.000982  -0.000120  -0.002537  -0.000157
    22  H    0.000825  -0.000774  -0.002264   0.004146  -0.004043   0.004593
              19         20         21         22
     1  O   -0.001242   0.000176   0.216680  -0.005561
     2  O   -0.011728   0.012663   0.002323   0.242913
     3  C    0.035575  -0.002805   0.176184  -0.024812
     4  C   -0.079298   0.052100  -0.070180   0.000200
     5  C   -0.010696   0.027203  -0.096672  -0.011696
     6  C    0.004317  -0.058946  -0.008119   0.026146
     7  C   -0.001304  -0.071438   0.040352  -0.029084
     8  C    0.431310   0.380056  -0.009145   0.052365
     9  H   -0.000801   0.001523   0.000659   0.000820
    10  H   -0.000651  -0.000173   0.002172  -0.001936
    11  H    0.000669  -0.001194  -0.008264   0.001876
    12  H    0.002572  -0.013708   0.002807   0.000755
    13  H   -0.002120   0.003914   0.002549   0.000825
    14  H    0.000643   0.000424  -0.013178  -0.000774
    15  H    0.004259  -0.007065   0.000982  -0.002264
    16  H   -0.002057   0.007586  -0.000120   0.004146
    17  H    0.001832  -0.001720  -0.002537  -0.004043
    18  H   -0.027104  -0.052054  -0.000157   0.004593
    19  H    0.467878  -0.045142  -0.000007  -0.001475
    20  H   -0.045142   0.566788  -0.000607  -0.000122
    21  H   -0.000007  -0.000607   0.461529   0.004306
    22  H   -0.001475  -0.000122   0.004306   0.421889
 Mulliken charges:
               1
     1  O   -0.182857
     2  O   -0.118647
     3  C   -0.342835
     4  C   -0.116223
     5  C   -0.534873
     6  C   -0.660278
     7  C   -0.598055
     8  C   -0.672082
     9  H    0.263122
    10  H    0.202414
    11  H    0.181940
    12  H    0.208380
    13  H    0.234451
    14  H    0.193246
    15  H    0.193643
    16  H    0.237167
    17  H    0.228017
    18  H    0.226981
    19  H    0.234571
    20  H    0.202542
    21  H    0.298445
    22  H    0.320932
 Sum of Mulliken charges =  -0.00000
 Mulliken charges with hydrogens summed into heavy atoms:
               1
     1  O    0.115588
     2  O    0.202285
     3  C   -0.342835
     4  C   -0.116223
     5  C    0.112602
     6  C   -0.024202
     7  C    0.060772
     8  C   -0.007988
 Electronic spatial extent (au):  <R**2>=            991.8698
 Charge=             -0.0000 electrons
 Dipole moment (field-independent basis, Debye):
    X=              1.8615    Y=             -0.5863    Z=              1.5956  Tot=              2.5209
 Quadrupole moment (field-independent basis, Debye-Ang):
   XX=            -49.3828   YY=            -54.0565   ZZ=            -52.9157
   XY=              0.9495   XZ=             -2.3760   YZ=              1.6085
 Traceless Quadrupole moment (field-independent basis, Debye-Ang):
   XX=              2.7355   YY=             -1.9381   ZZ=             -0.7974
   XY=              0.9495   XZ=             -2.3760   YZ=              1.6085
 Octapole moment (field-independent basis, Debye-Ang**2):
  XXX=             17.0546  YYY=             -0.0478  ZZZ=            -12.3554  XYY=              1.2560
  XXY=             -7.1945  XXZ=             -4.1080  XZZ=              1.0301  YZZ=             -2.9383
  YYZ=             -0.5738  XYZ=             -3.3496
 Hexadecapole moment (field-independent basis, Debye-Ang**3):
 XXXX=           -568.5592 YYYY=           -384.1049 ZZZZ=           -325.1321 XXXY=            -20.5243
 XXXZ=            -23.4838 YYYX=             -7.4100 YYYZ=              2.1763 ZZZX=              2.7653
 ZZZY=              6.4529 XXYY=           -167.0453 XXZZ=           -165.2650 YYZZ=           -123.6549
 XXYZ=             10.0838 YYXZ=             -2.3171 ZZXY=              2.9088
 N-N= 4.420942954768D+02 E-N=-1.788140226853D+03  KE= 3.855288889539D+02
 R6APFD:  NTU= -4 IXU= 1 FactS= 1.050
 Calling FoFJK, ICntrl=      2127 FMM=F ISym2X=0 I1Cent= 0 IOpClX= 0 NMat=1 NMatS=1 NMatT=0.
 ***** Axes restored to original set *****
 -------------------------------------------------------------------
 Center     Atomic                   Forces (Hartrees/Bohr)
 Number     Number              X              Y              Z
 -------------------------------------------------------------------
      1        8          -0.000135924    0.004032678    0.004104768
      2        8           0.004689490    0.000369873    0.001658321
      3        6           0.016933127   -0.000775190   -0.006163681
      4        6          -0.006373505    0.003661491    0.012788935
      5        6          -0.006696783   -0.003473731    0.000967214
      6        6          -0.004582428    0.002570883   -0.001785072
      7        6           0.003634837    0.003174596   -0.000999471
      8        6           0.002220318   -0.004718236    0.005488207
      9        1          -0.004293928    0.001043026   -0.000500251
     10        1           0.000062350   -0.000380793   -0.001765284
     11        1           0.001619771    0.003561291   -0.002536939
     12        1          -0.000217477   -0.000916232   -0.001756962
     13        1          -0.003550776    0.000148036    0.000713853
     14        1           0.001436841   -0.004013300    0.000469660
     15        1           0.000825678    0.001180699   -0.001676066
     16        1           0.000515621   -0.004937101   -0.001912528
     17        1           0.004689483    0.000404036   -0.000020110
     18        1           0.003170910   -0.000226034    0.000596181
     19        1           0.000713927    0.004061071    0.002276758
     20        1           0.001648784    0.001817202   -0.000424740
     21        1          -0.014457361   -0.001147498    0.000234858
     22        1          -0.001852955   -0.005436769   -0.009757649
 -------------------------------------------------------------------
 Cartesian Forces:  Max     0.016933127 RMS     0.004411119

 GradGradGradGradGradGradGradGradGradGradGradGradGradGradGradGradGradGrad
 Berny optimization.
 FormGI is forming the generalized inverse of G from B-inverse, IUseBI=4.
 Internal  Forces:  Max     0.014495225 RMS     0.003737632
 Search for a local minimum.
 Step number   1 out of a maximum of  120
 All quantities printed in internal units (Hartrees-Bohrs-Radians)
 Mixed Optimization -- RFO/linear search
 Second derivative matrix not updated -- first step.
 ITU=  0
     Eigenvalues ---    0.00230   0.00272   0.00272   0.00302   0.00304
     Eigenvalues ---    0.01199   0.01201   0.03957   0.03958   0.05238
     Eigenvalues ---    0.05251   0.05258   0.05258   0.05520   0.05534
     Eigenvalues ---    0.05549   0.05572   0.06030   0.06031   0.06749
     Eigenvalues ---    0.06749   0.16000   0.16000   0.16000   0.16000
     Eigenvalues ---    0.16000   0.16000   0.16000   0.16000   0.16000
     Eigenvalues ---    0.16000   0.16000   0.16000   0.16000   0.16000
     Eigenvalues ---    0.16228   0.16228   0.16683   0.16683   0.26555
     Eigenvalues ---    0.28753   0.28754   0.28963   0.28975   0.34028
     Eigenvalues ---    0.34035   0.34060   0.34065   0.34184   0.34194
     Eigenvalues ---    0.34257   0.34265   0.34339   0.34357   0.34383
     Eigenvalues ---    0.34402   0.39965   0.39987   0.52845   0.52895
 RFO step:  Lambda=-1.01213766D-02 EMin= 2.30000000D-03
 Linear search not attempted -- first point.
 Iteration  1 RMS(Cart)=  0.06543329 RMS(Int)=  0.00132030
 Iteration  2 RMS(Cart)=  0.00180024 RMS(Int)=  0.00061434
 Iteration  3 RMS(Cart)=  0.00000157 RMS(Int)=  0.00061434
 Iteration  4 RMS(Cart)=  0.00000000 RMS(Int)=  0.00061434
 Variable       Old X    -DE/DX   Delta X   Delta X   Delta X     New X
                                 (Linear)    (Quad)   (Total)
    R1        2.71571   0.00072   0.00000   0.00175   0.00175   2.71746
    R2        1.83752  -0.01450   0.00000  -0.02689  -0.02689   1.81063
    R3        2.71601  -0.00544   0.00000  -0.01328  -0.01328   2.70272
    R4        1.83799  -0.01098   0.00000  -0.02040  -0.02040   1.81759
    R5        2.95412  -0.01386   0.00000  -0.05028  -0.05028   2.90384
    R6        2.90522  -0.00449   0.00000  -0.01509  -0.01509   2.89012
    R7        2.90055  -0.00203   0.00000  -0.00678  -0.00678   2.89377
    R8        2.90520  -0.00412   0.00000  -0.01383  -0.01383   2.89137
    R9        2.90080  -0.00946   0.00000  -0.03155  -0.03155   2.86925
   R10        2.07020   0.00052   0.00000   0.00149   0.00149   2.07169
   R11        2.06733   0.00168   0.00000   0.00476   0.00476   2.07208
   R12        2.07229   0.00148   0.00000   0.00423   0.00423   2.07651
   R13        2.06689   0.00196   0.00000   0.00553   0.00553   2.07242
   R14        2.06898   0.00115   0.00000   0.00326   0.00326   2.07224
   R15        2.07271   0.00144   0.00000   0.00412   0.00412   2.07682
   R16        2.06762   0.00215   0.00000   0.00607   0.00607   2.07369
   R17        2.07221  -0.00049   0.00000  -0.00141  -0.00141   2.07080
   R18        2.07003   0.00187   0.00000   0.00532   0.00532   2.07535
   R19        2.06885   0.00113   0.00000   0.00319   0.00319   2.07204
   R20        2.07282  -0.00064   0.00000  -0.00181  -0.00181   2.07101
   R21        2.06657   0.00148   0.00000   0.00419   0.00419   2.07076
    A1        1.88812   0.00002   0.00000   0.00013   0.00013   1.88825
    A2        1.87923  -0.00383   0.00000  -0.02252  -0.02252   1.85671
    A3        1.87801  -0.00824   0.00000  -0.08533  -0.08411   1.79390
    A4        1.86087   0.00572   0.00000   0.05966   0.05651   1.91738
    A5        1.86974   0.00421   0.00000   0.05240   0.04968   1.91942
    A6        1.96561  -0.00194   0.00000  -0.03072  -0.02985   1.93576
    A7        1.97782   0.00096   0.00000  -0.01294  -0.01210   1.96572
    A8        1.90539  -0.00017   0.00000   0.02416   0.02201   1.92740
    A9        1.87805   0.00094   0.00000   0.00026   0.00042   1.87847
   A10        1.86080   0.00496   0.00000   0.05832   0.05848   1.91928
   A11        1.86969  -0.00380   0.00000  -0.02031  -0.02132   1.84837
   A12        1.96576  -0.00576   0.00000  -0.03580  -0.03564   1.93012
   A13        1.97778   0.00008   0.00000  -0.02050  -0.02058   1.95720
   A14        1.90534   0.00389   0.00000   0.02325   0.02255   1.92789
   A15        1.94071  -0.00329   0.00000  -0.01595  -0.01599   1.92472
   A16        1.95702   0.00051   0.00000  -0.00231  -0.00242   1.95459
   A17        1.93339  -0.00383   0.00000  -0.02066  -0.02074   1.91265
   A18        1.89791   0.00108   0.00000   0.00292   0.00285   1.90076
   A19        1.84997   0.00502   0.00000   0.03995   0.03995   1.88992
   A20        1.88067   0.00093   0.00000  -0.00095  -0.00109   1.87957
   A21        1.95647   0.00065   0.00000  -0.00112  -0.00120   1.95528
   A22        1.94673  -0.00251   0.00000  -0.01129  -0.01129   1.93544
   A23        1.93072  -0.00307   0.00000  -0.01666  -0.01671   1.91401
   A24        1.90086   0.00069   0.00000   0.00145   0.00142   1.90228
   A25        1.88195   0.00041   0.00000  -0.00420  -0.00431   1.87764
   A26        1.84248   0.00414   0.00000   0.03415   0.03417   1.87665
   A27        1.95657   0.00106   0.00000   0.00193   0.00185   1.95843
   A28        1.92905  -0.00611   0.00000  -0.03378  -0.03386   1.89519
   A29        1.94355  -0.00219   0.00000  -0.01079  -0.01082   1.93274
   A30        1.88379   0.00219   0.00000   0.00879   0.00867   1.89246
   A31        1.89636   0.00011   0.00000  -0.00330  -0.00332   1.89304
   A32        1.85041   0.00537   0.00000   0.04008   0.04005   1.89046
   A33        1.94767  -0.00135   0.00000  -0.00478  -0.00479   1.94288
   A34        1.92664  -0.00493   0.00000  -0.02774  -0.02793   1.89872
   A35        1.95779  -0.00180   0.00000  -0.01507  -0.01530   1.94249
   A36        1.84123   0.00438   0.00000   0.03465   0.03469   1.87592
   A37        1.90175   0.00145   0.00000   0.00626   0.00620   1.90794
   A38        1.88407   0.00280   0.00000   0.01036   0.00997   1.89404
    D1       -3.12555  -0.00116   0.00000  -0.02012  -0.02029   3.13735
    D2        1.04487   0.00243   0.00000   0.02934   0.03118   1.07606
    D3       -0.99336  -0.00227   0.00000  -0.05383  -0.05550  -1.04886
    D4        1.00194  -0.00172   0.00000  -0.03876  -0.03852   0.96342
    D5       -1.11098   0.00184   0.00000  -0.02875  -0.02927  -1.14025
    D6        3.13409  -0.00326   0.00000  -0.07458  -0.07430   3.05979
    D7       -0.94990  -0.00259   0.00000  -0.02982  -0.03029  -0.98019
    D8        1.09586   0.00079   0.00000   0.02133   0.02078   1.11664
    D9       -3.01360   0.00145   0.00000   0.00731   0.00735  -3.00625
   D10        1.09583  -0.00190   0.00000  -0.02820  -0.02772   1.06812
   D11        3.14159   0.00148   0.00000   0.02295   0.02335  -3.11824
   D12       -0.96787   0.00214   0.00000   0.00893   0.00993  -0.95794
   D13       -3.01365  -0.00293   0.00000  -0.03080  -0.03124  -3.04489
   D14       -0.96789   0.00045   0.00000   0.02035   0.01983  -0.94806
   D15        1.20584   0.00111   0.00000   0.00633   0.00640   1.21224
   D16        1.10169  -0.00417   0.00000  -0.03732  -0.03807   1.06362
   D17       -3.05245  -0.00478   0.00000  -0.04670  -0.04745  -3.09990
   D18       -0.95072  -0.00590   0.00000  -0.06383  -0.06451  -1.01523
   D19       -0.95418   0.00336   0.00000   0.04625   0.04656  -0.90762
   D20        1.17487   0.00275   0.00000   0.03687   0.03718   1.21204
   D21       -3.00659   0.00163   0.00000   0.01975   0.02012  -2.98647
   D22        3.11606   0.00367   0.00000   0.06733   0.06770  -3.09942
   D23       -1.03809   0.00306   0.00000   0.05795   0.05832  -0.97976
   D24        1.06365   0.00194   0.00000   0.04083   0.04126   1.10491
   D25       -3.11322   0.00506   0.00000   0.06392   0.06427  -3.04895
   D26       -0.97636   0.00459   0.00000   0.05672   0.05707  -0.91928
   D27        1.06881   0.00622   0.00000   0.08153   0.08183   1.15064
   D28       -1.04468  -0.00180   0.00000  -0.01465  -0.01479  -1.05947
   D29        1.09218  -0.00227   0.00000  -0.02184  -0.02199   1.07019
   D30        3.13735  -0.00064   0.00000   0.00296   0.00277   3.14012
   D31        1.16130  -0.00377   0.00000  -0.04584  -0.04600   1.11531
   D32       -2.98502  -0.00424   0.00000  -0.05304  -0.05320  -3.03822
   D33       -0.93985  -0.00262   0.00000  -0.02823  -0.02844  -0.96829
   D34       -3.03486   0.00052   0.00000   0.01496   0.01429  -3.02057
   D35       -0.93245  -0.00020   0.00000   0.00408   0.00347  -0.92898
   D36        1.11954   0.00121   0.00000   0.02565   0.02501   1.14455
   D37        1.19237  -0.00053   0.00000  -0.00207  -0.00196   1.19041
   D38       -2.98841  -0.00125   0.00000  -0.01295  -0.01278  -3.00119
   D39       -0.93642   0.00016   0.00000   0.00862   0.00876  -0.92766
   D40       -1.02060   0.00063   0.00000   0.03345   0.03393  -0.98667
   D41        1.08181  -0.00009   0.00000   0.02258   0.02310   1.10491
   D42        3.13380   0.00132   0.00000   0.04414   0.04465  -3.10474
   D43       -0.98271   0.00176   0.00000   0.02470   0.02438  -0.95834
   D44        1.05890   0.00324   0.00000   0.04717   0.04670   1.10560
   D45       -3.12237   0.00218   0.00000   0.03107   0.03081  -3.09157
   D46        1.08583   0.00047   0.00000  -0.00033   0.00000   1.08583
   D47        3.12744   0.00195   0.00000   0.02214   0.02233  -3.13342
   D48       -1.05383   0.00088   0.00000   0.00603   0.00643  -1.04740
   D49       -2.99125  -0.00401   0.00000  -0.04463  -0.04456  -3.03581
   D50       -0.94964  -0.00253   0.00000  -0.02216  -0.02223  -0.97187
   D51        1.15227  -0.00359   0.00000  -0.03826  -0.03813   1.11415
         Item               Value     Threshold  Converged?
 Maximum Force            0.014495     0.000450     NO 
 RMS     Force            0.003738     0.000300     NO 
 Maximum Displacement     0.244710     0.001800     NO 
 RMS     Displacement     0.065368     0.001200     NO 
 Predicted change in Energy=-5.718158D-03
 GradGradGradGradGradGradGradGradGradGradGradGradGradGradGradGradGradGrad

                          Input orientation:                          
 ---------------------------------------------------------------------
 Center     Atomic      Atomic             Coordinates (Angstroms)
 Number     Number       Type             X           Y           Z
 ---------------------------------------------------------------------
      1          8           0        1.087983    0.678224    1.223532
      2          8           0       -1.158008   -0.694801    1.196768
      3          6           0        0.775179    0.026858   -0.019758
      4          6           0       -0.760578   -0.021920   -0.001067
      5          6           0        1.366032   -1.383747   -0.030272
      6          6           0        1.324420    0.845244   -1.191730
      7          6           0       -1.344115    1.392294   -0.024080
      8          6           0       -1.320886   -0.845962   -1.146652
      9          1           0        0.938874   -1.980684    0.784012
     10          1           0        1.183758   -1.898157   -0.981308
     11          1           0        2.453636   -1.328672    0.116496
     12          1           0        1.024780    0.428281   -2.160782
     13          1           0        0.988462    1.887407   -1.132394
     14          1           0        2.422885    0.849201   -1.157409
     15          1           0       -1.164503    1.899613   -0.980396
     16          1           0       -2.426293    1.326235    0.135152
     17          1           0       -0.913624    2.003735    0.780235
     18          1           0       -0.995893   -1.891178   -1.082099
     19          1           0       -2.415084   -0.837044   -1.085718
     20          1           0       -1.022929   -0.432978   -2.116933
     21          1           0        2.041105    0.746349    1.293971
     22          1           0       -0.744204   -0.220800    1.924234
 ---------------------------------------------------------------------
                    Distance matrix (angstroms):
                    1          2          3          4          5
     1  O    0.000000
     2  O    2.632563   0.000000
     3  C    1.438018   2.395400   0.000000
     4  C    2.325300   1.430220   1.536645   0.000000
     5  C    2.429210   2.889819   1.529387   2.525450   0.000000
     6  C    2.432548   3.773475   1.531319   2.552816   2.513785
     7  C    2.825160   2.425091   2.521079   1.530047   3.879605
     8  C    3.707231   2.353933   2.534796   1.518340   2.958892
     9  H    2.699111   2.494148   2.168655   2.709472   1.096292
    10  H    3.392379   3.417009   2.190251   2.874296   1.096499
    11  H    2.667990   3.822663   2.161769   3.471684   1.098843
    12  H    3.394120   4.159209   2.192584   2.838055   2.817618
    13  H    2.649984   4.086579   2.178323   2.825698   3.472417
    14  H    2.734973   4.555095   2.164586   3.497201   2.715406
    15  H    3.379761   3.386897   2.862237   2.194204   4.252857
    16  H    3.735589   2.611544   3.458583   2.147250   4.664021
    17  H    2.441295   2.741409   2.720310   2.176496   4.162786
    18  H    4.032406   2.578921   2.818532   2.172125   2.634865
    19  H    4.460959   2.609639   3.472805   2.139693   3.963545
    20  H    4.104805   3.326773   2.800497   2.171333   3.311382
    21  H    0.958146   3.510084   1.961153   3.180689   2.597432
    22  H    2.157808   0.961829   2.479710   1.935614   3.102521
                    6          7          8          9         10
     6  C    0.000000
     7  C    2.963739   0.000000
     8  C    3.140040   2.504096   0.000000
     9  H    3.469592   4.152351   3.181441   0.000000
    10  H    2.755051   4.258344   2.721708   1.784134   0.000000
    11  H    2.777137   4.674005   4.009434   1.779101   1.772590
    12  H    1.096678   3.332639   2.855574   3.805562   2.613187
    13  H    1.096583   2.629527   3.578351   4.317082   3.793608
    14  H    1.099008   3.971105   4.109685   3.738937   3.019010
    15  H    2.711290   1.097349   2.755046   4.753318   4.465130
    16  H    4.007470   1.095823   2.753794   4.762465   4.967459
    17  H    3.199936   1.098228   3.464033   4.394013   4.767264
    18  H    3.589411   3.467253   1.096478   2.689554   2.181992
    19  H    4.101856   2.691468   1.095929   4.006598   3.753468
    20  H    2.828409   2.795498   1.095801   3.828778   2.881989
    21  H    2.588846   3.689744   4.449166   2.985244   3.592401
    22  H    3.889072   2.599594   3.186491   2.688874   3.869462
                   11         12         13         14         15
    11  H    0.000000
    12  H    3.211620   0.000000
    13  H    3.748283   1.785483   0.000000
    14  H    2.523274   1.771617   1.770894   0.000000
    15  H    4.971511   2.889825   2.158358   3.742199   0.000000
    16  H    5.555410   4.241172   3.685395   5.041111   1.779135
    17  H    4.783714   3.858633   2.699928   4.027369   1.781461
    18  H    3.694901   3.259842   4.268243   4.382168   3.795901
    19  H    5.038992   3.819617   4.359924   5.123915   3.010704
    20  H    4.228117   2.221892   3.224778   3.799777   2.598603
    21  H    2.421227   3.615162   2.880506   2.483062   4.096179
    22  H    3.836857   4.498662   4.097517   4.546634   3.620729
                   16         17         18         19         20
    16  H    0.000000
    17  H    1.778569   0.000000
    18  H    3.725518   4.318032   0.000000
    19  H    2.484034   3.715668   1.767855   0.000000
    20  H    3.183731   3.787228   1.788284   1.778980   0.000000
    21  H    4.651534   3.251979   4.671789   5.294117   4.734277
    22  H    2.902336   2.507189   3.448411   3.497343   4.056320
                   21         22
    21  H    0.000000
    22  H    3.015055   0.000000
 Stoichiometry    C6H14O2
 Framework group  C1[X(C6H14O2)]
 Deg. of freedom    60
 Full point group                 C1      NOp   1
 Largest Abelian subgroup         C1      NOp   1
 Largest concise Abelian subgroup C1      NOp   1
                         Standard orientation:                         
 ---------------------------------------------------------------------
 Center     Atomic      Atomic             Coordinates (Angstroms)
 Number     Number       Type             X           Y           Z
 ---------------------------------------------------------------------
      1          8           0        1.056422   -0.746555   -1.204974
      2          8           0       -1.160655    0.672553   -1.238005
      3          6           0        0.758700   -0.034712    0.008507
      4          6           0       -0.775741    0.045002   -0.011812
      5          6           0        1.378615    1.362442   -0.043345
      6          6           0        1.292350   -0.811879    1.215225
      7          6           0       -1.388375   -1.354431    0.073692
      8          6           0       -1.317464    0.930140    1.096531
      9          1           0        0.962885    1.931651   -0.883003
     10          1           0        1.208200    1.921913    0.884158
     11          1           0        2.464664    1.278435   -0.187900
     12          1           0        1.002601   -0.346515    2.165059
     13          1           0        0.934835   -1.848461    1.201982
     14          1           0        2.390455   -0.840102    1.180751
     15          1           0       -1.218108   -1.822743    1.051376
     16          1           0       -2.469152   -1.273045   -0.087941
     17          1           0       -0.971621   -2.009498   -0.703038
     18          1           0       -0.971003    1.964540    0.985873
     19          1           0       -2.411687    0.941218    1.036408
     20          1           0       -1.026909    0.554215    2.083971
     21          1           0        2.007843   -0.837449   -1.272654
     22          1           0       -0.757646    0.158495   -1.944011
 ---------------------------------------------------------------------
 Rotational constants (GHZ):           2.4154103           1.8033019           1.7752255
 Standard basis: 6-311++G(d,p) (5D, 7F)
 There are   282 symmetry adapted cartesian basis functions of A   symmetry.
 There are   274 symmetry adapted basis functions of A   symmetry.
   274 basis functions,   414 primitive gaussians,   282 cartesian basis functions
    33 alpha electrons       33 beta electrons
       nuclear repulsion energy       447.2783068375 Hartrees.
 NAtoms=   22 NActive=   22 NUniq=   22 SFac= 1.00D+00 NAtFMM=   60 NAOKFM=F Big=F
 Integral buffers will be    131072 words long.
 Raffenetti 2 integral format.
 Two-electron integral symmetry is turned on.
 R6APFD:  NTU= -4 IXU= 1 FactS= 1.050
 Nuclear repulsion after empirical dispersion term =      447.2594786543 Hartrees.
 One-electron integrals computed using PRISM.
 NBasis=   274 RedAO= T EigKep=  7.73D-06  NBF=   274
 NBsUse=   274 1.00D-06 EigRej= -1.00D+00 NBFU=   274
 Initial guess from the checkpoint file:  "PNAL0069.chk"
 B after Tr=     0.000000    0.000000    0.000000
         Rot=    0.998620   -0.051290   -0.011220   -0.000903 Ang=  -6.02 deg.
 ExpMin= 3.60D-02 ExpMax= 8.59D+03 ExpMxC= 1.30D+03 IAcc=3 IRadAn=         5 AccDes= 0.00D+00
 Harris functional with IExCor= 1009 and IRadAn=       5 diagonalized for initial guess.
 HarFok:  IExCor= 1009 AccDes= 0.00D+00 IRadAn=         5 IDoV= 1 UseB2=F ITyADJ=14
 ICtDFT=  3500011 ScaDFX=  1.000000  1.000000  1.000000  1.000000
 FoFCou: FMM=F IPFlag=           0 FMFlag=      100000 FMFlg1=           0
         NFxFlg=           0 DoJE=T BraDBF=F KetDBF=T FulRan=T
         wScrn=  0.000000 ICntrl=       500 IOpCl=  0 I1Cent=   200000004 NGrid=           0
         NMat0=    1 NMatS0=      1 NMatT0=    0 NMatD0=    1 NMtDS0=    0 NMtDT0=    0
 Petite list used in FoFCou.
 Requested convergence on RMS density matrix=1.00D-08 within  32 cycles.
 Requested convergence on MAX density matrix=1.00D-06.
 Requested convergence on             energy=1.00D-06.
 No special actions if energy rises.
 SCF Done:  E(RM08HX) =  -387.548295280     A.U. after   11 cycles
            NFock= 11  Conv=0.77D-08     -V/T= 2.0048
 QCSCF skips out because SCF is already converged.
 R6APFD:  NTU= -4 IXU= 1 FactS= 1.050
 Calling FoFJK, ICntrl=      2127 FMM=F ISym2X=0 I1Cent= 0 IOpClX= 0 NMat=1 NMatS=1 NMatT=0.
 ***** Axes restored to original set *****
 -------------------------------------------------------------------
 Center     Atomic                   Forces (Hartrees/Bohr)
 Number     Number              X              Y              Z
 -------------------------------------------------------------------
      1        8           0.003889613   -0.000156182   -0.002264969
      2        8          -0.002115298    0.002185194   -0.002448729
      3        6           0.003352894   -0.000467872   -0.002423648
      4        6          -0.004157814   -0.002038186    0.002580066
      5        6           0.003339306   -0.000935175    0.002989352
      6        6           0.002043032    0.002631305    0.001508231
      7        6          -0.003476717    0.002688962    0.002031017
      8        6          -0.003152228   -0.002364785   -0.001048397
      9        1          -0.000584268    0.000397125   -0.001081061
     10        1           0.000776127    0.001545340   -0.000005534
     11        1           0.000468078   -0.000279958   -0.000610952
     12        1           0.000086863   -0.000452699    0.000970138
     13        1           0.000436645   -0.001058974   -0.000102781
     14        1           0.000131542   -0.000771753   -0.000539604
     15        1          -0.000734540   -0.001327641    0.000235974
     16        1          -0.000347318    0.000129954   -0.000442110
     17        1           0.000131093   -0.000534159   -0.001265080
     18        1          -0.000441273    0.001190289    0.000278509
     19        1          -0.000161308    0.000346849   -0.000693935
     20        1          -0.000535161   -0.000234268   -0.000414055
     21        1           0.000589632    0.000221151    0.001994696
     22        1           0.000461101   -0.000714519    0.000752871
 -------------------------------------------------------------------
 Cartesian Forces:  Max     0.004157814 RMS     0.001638394

 GradGradGradGradGradGradGradGradGradGradGradGradGradGradGradGradGradGrad
 Berny optimization.
 Using GEDIIS/GDIIS optimizer.
 FormGI is forming the generalized inverse of G from B-inverse, IUseBI=4.
 Internal  Forces:  Max     0.014535570 RMS     0.001735658
 Search for a local minimum.
 Step number   2 out of a maximum of  120
 All quantities printed in internal units (Hartrees-Bohrs-Radians)
 Mixed Optimization -- RFO/linear search
 Update second derivatives using D2CorX and points    1    2
 DE= -4.11D-03 DEPred=-5.72D-03 R= 7.19D-01
 TightC=F SS=  1.41D+00  RLast= 3.27D-01 DXNew= 5.0454D-01 9.8197D-01
 Trust test= 7.19D-01 RLast= 3.27D-01 DXMaxT set to 5.05D-01
 ITU=  1  0
 Use linear search instead of GDIIS.
     Eigenvalues ---    0.00230   0.00270   0.00272   0.00302   0.00304
     Eigenvalues ---    0.01192   0.01202   0.04122   0.04278   0.05351
     Eigenvalues ---    0.05362   0.05394   0.05395   0.05472   0.05657
     Eigenvalues ---    0.05711   0.05749   0.05989   0.06269   0.06731
     Eigenvalues ---    0.07884   0.14889   0.15928   0.16000   0.16000
     Eigenvalues ---    0.16000   0.16000   0.16000   0.16000   0.16000
     Eigenvalues ---    0.16000   0.16000   0.16000   0.16000   0.16000
     Eigenvalues ---    0.16045   0.16305   0.16624   0.17007   0.28249
     Eigenvalues ---    0.28736   0.28826   0.28965   0.32533   0.34022
     Eigenvalues ---    0.34030   0.34051   0.34067   0.34185   0.34217
     Eigenvalues ---    0.34261   0.34300   0.34349   0.34374   0.34395
     Eigenvalues ---    0.35117   0.39753   0.39994   0.52397   0.52867
 RFO step:  Lambda=-1.49599932D-03 EMin= 2.29953686D-03
 Quartic linear search produced a step of -0.17219.
 Iteration  1 RMS(Cart)=  0.05431942 RMS(Int)=  0.00169252
 Iteration  2 RMS(Cart)=  0.00178433 RMS(Int)=  0.00010302
 Iteration  3 RMS(Cart)=  0.00000183 RMS(Int)=  0.00010302
 Iteration  4 RMS(Cart)=  0.00000000 RMS(Int)=  0.00010302
 Variable       Old X    -DE/DX   Delta X   Delta X   Delta X     New X
                                 (Linear)    (Quad)   (Total)
    R1        2.71746   0.00077  -0.00030   0.00209   0.00179   2.71925
    R2        1.81063   0.00075   0.00463  -0.00677  -0.00214   1.80850
    R3        2.70272  -0.00165   0.00229  -0.00733  -0.00504   2.69768
    R4        1.81759   0.00042   0.00351  -0.00536  -0.00185   1.81574
    R5        2.90384   0.01454   0.00866   0.02961   0.03827   2.94211
    R6        2.89012   0.00087   0.00260  -0.00206   0.00054   2.89066
    R7        2.89377  -0.00025   0.00117  -0.00274  -0.00157   2.89221
    R8        2.89137   0.00257   0.00238   0.00315   0.00554   2.89691
    R9        2.86925   0.00357   0.00543   0.00062   0.00606   2.87530
   R10        2.07169  -0.00079  -0.00026  -0.00145  -0.00171   2.06999
   R11        2.07208  -0.00085  -0.00082  -0.00060  -0.00142   2.07066
   R12        2.07651   0.00037  -0.00073   0.00214   0.00141   2.07793
   R13        2.07242  -0.00071  -0.00095  -0.00003  -0.00098   2.07144
   R14        2.07224  -0.00115  -0.00056  -0.00177  -0.00233   2.06991
   R15        2.07682   0.00011  -0.00071   0.00150   0.00079   2.07761
   R16        2.07369  -0.00094  -0.00105  -0.00043  -0.00147   2.07221
   R17        2.07080   0.00027   0.00024   0.00023   0.00047   2.07128
   R18        2.07535  -0.00117  -0.00092  -0.00122  -0.00213   2.07322
   R19        2.07204  -0.00125  -0.00055  -0.00203  -0.00258   2.06946
   R20        2.07101   0.00013   0.00031  -0.00024   0.00008   2.07108
   R21        2.07076   0.00013  -0.00072   0.00156   0.00084   2.07160
    A1        1.88825   0.00327  -0.00002   0.01669   0.01667   1.90492
    A2        1.85671   0.00136   0.00388  -0.00001   0.00387   1.86058
    A3        1.79390   0.00052   0.01448  -0.01889  -0.00457   1.78933
    A4        1.91738  -0.00076  -0.00973   0.00386  -0.00536   1.91202
    A5        1.91942  -0.00068  -0.00855   0.00321  -0.00491   1.91451
    A6        1.93576   0.00120   0.00514   0.00338   0.00837   1.94413
    A7        1.96572   0.00134   0.00208   0.01040   0.01235   1.97807
    A8        1.92740  -0.00152  -0.00379  -0.00274  -0.00628   1.92112
    A9        1.87847  -0.00012  -0.00007   0.00512   0.00509   1.88356
   A10        1.91928  -0.00045  -0.01007   0.00673  -0.00354   1.91574
   A11        1.84837  -0.00050   0.00367  -0.01826  -0.01452   1.83385
   A12        1.93012   0.00134   0.00614   0.00289   0.00903   1.93916
   A13        1.95720   0.00192   0.00354   0.01033   0.01394   1.97115
   A14        1.92789  -0.00226  -0.00388  -0.00720  -0.01112   1.91677
   A15        1.92472  -0.00008   0.00275  -0.00293  -0.00020   1.92452
   A16        1.95459  -0.00154   0.00042  -0.01164  -0.01124   1.94335
   A17        1.91265   0.00078   0.00357  -0.00187   0.00168   1.91433
   A18        1.90076   0.00073  -0.00049   0.00341   0.00291   1.90367
   A19        1.88992   0.00041  -0.00688   0.02058   0.01368   1.90360
   A20        1.87957  -0.00025   0.00019  -0.00645  -0.00628   1.87329
   A21        1.95528  -0.00127   0.00021  -0.00890  -0.00870   1.94657
   A22        1.93544   0.00052   0.00194   0.00132   0.00327   1.93870
   A23        1.91401   0.00013   0.00288  -0.00465  -0.00179   1.91222
   A24        1.90228   0.00045  -0.00024   0.00297   0.00274   1.90501
   A25        1.87764   0.00004   0.00074  -0.00546  -0.00475   1.87289
   A26        1.87665   0.00017  -0.00588   0.01557   0.00967   1.88632
   A27        1.95843  -0.00116  -0.00032  -0.00753  -0.00786   1.95057
   A28        1.89519   0.00043   0.00583  -0.00813  -0.00231   1.89287
   A29        1.93274   0.00017   0.00186  -0.00051   0.00135   1.93409
   A30        1.89246  -0.00018  -0.00149  -0.00232  -0.00384   1.88862
   A31        1.89304   0.00050   0.00057   0.00110   0.00168   1.89472
   A32        1.89046   0.00028  -0.00690   0.01837   0.01148   1.90194
   A33        1.94288  -0.00053   0.00082  -0.00346  -0.00263   1.94025
   A34        1.89872   0.00039   0.00481  -0.00720  -0.00236   1.89636
   A35        1.94249   0.00089   0.00263  -0.00046   0.00221   1.94470
   A36        1.87592   0.00007  -0.00597   0.01153   0.00555   1.88147
   A37        1.90794  -0.00005  -0.00107   0.00256   0.00151   1.90945
   A38        1.89404  -0.00081  -0.00172  -0.00260  -0.00425   1.88979
    D1        3.13735  -0.00049   0.00349  -0.03590  -0.03238   3.10497
    D2        1.07606  -0.00180  -0.00537  -0.03152  -0.03722   1.03884
    D3       -1.04886   0.00103   0.00956  -0.03270  -0.02285  -1.07171
    D4        0.96342  -0.00064   0.00663  -0.04931  -0.04271   0.92071
    D5       -1.14025  -0.00193   0.00504  -0.05986  -0.05473  -1.19498
    D6        3.05979   0.00127   0.01279  -0.04433  -0.03160   3.02819
    D7       -0.98019   0.00032   0.00522   0.02933   0.03464  -0.94554
    D8        1.11664   0.00048  -0.00358   0.04239   0.03887   1.15551
    D9       -3.00625  -0.00007  -0.00127   0.04266   0.04141  -2.96484
   D10        1.06812   0.00025   0.00477   0.02500   0.02967   1.09778
   D11       -3.11824   0.00042  -0.00402   0.03807   0.03389  -3.08435
   D12       -0.95794  -0.00013  -0.00171   0.03833   0.03643  -0.92151
   D13       -3.04489   0.00016   0.00538   0.03176   0.03727  -3.00761
   D14       -0.94806   0.00033  -0.00341   0.04482   0.04150  -0.90656
   D15        1.21224  -0.00022  -0.00110   0.04509   0.04404   1.25628
   D16        1.06362   0.00177   0.00655   0.07976   0.08643   1.15005
   D17       -3.09990   0.00159   0.00817   0.07414   0.08241  -3.01749
   D18       -1.01523   0.00082   0.01111   0.05740   0.06862  -0.94661
   D19       -0.90762   0.00092  -0.00802   0.09846   0.09038  -0.81724
   D20        1.21204   0.00074  -0.00640   0.09284   0.08637   1.29841
   D21       -2.98647  -0.00003  -0.00346   0.07611   0.07257  -2.91390
   D22       -3.09942  -0.00057  -0.01166   0.08452   0.07283  -3.02660
   D23       -0.97976  -0.00075  -0.01004   0.07890   0.06882  -0.91095
   D24        1.10491  -0.00152  -0.00711   0.06217   0.05502   1.15993
   D25       -3.04895  -0.00123  -0.01107   0.03370   0.02260  -3.02635
   D26       -0.91928  -0.00117  -0.00983   0.03221   0.02233  -0.89696
   D27        1.15064  -0.00055  -0.01409   0.04932   0.03518   1.18582
   D28       -1.05947  -0.00023   0.00255   0.01851   0.02110  -1.03837
   D29        1.07019  -0.00017   0.00379   0.01701   0.02083   1.09102
   D30        3.14012   0.00045  -0.00048   0.03412   0.03367  -3.10939
   D31        1.11531   0.00117   0.00792   0.02855   0.03649   1.15179
   D32       -3.03822   0.00123   0.00916   0.02705   0.03622  -3.00200
   D33       -0.96829   0.00185   0.00490   0.04416   0.04907  -0.91922
   D34       -3.02057   0.00135  -0.00246   0.08361   0.08125  -2.93932
   D35       -0.92898   0.00069  -0.00060   0.07063   0.07015  -0.85883
   D36        1.14455   0.00139  -0.00431   0.08777   0.08357   1.22812
   D37        1.19041   0.00095   0.00034   0.07127   0.07155   1.26197
   D38       -3.00119   0.00028   0.00220   0.05829   0.06046  -2.94073
   D39       -0.92766   0.00099  -0.00151   0.07543   0.07388  -0.85378
   D40       -0.98667  -0.00086  -0.00584   0.06108   0.05516  -0.93151
   D41        1.10491  -0.00152  -0.00398   0.04810   0.04407   1.14898
   D42       -3.10474  -0.00082  -0.00769   0.06523   0.05748  -3.04726
   D43       -0.95834  -0.00067  -0.00420   0.02309   0.01903  -0.93931
   D44        1.10560  -0.00065  -0.00804   0.03068   0.02279   1.12839
   D45       -3.09157  -0.00086  -0.00530   0.02257   0.01739  -3.07418
   D46        1.08583  -0.00010  -0.00000   0.02369   0.02363   1.10946
   D47       -3.13342  -0.00009  -0.00384   0.03128   0.02739  -3.10602
   D48       -1.04740  -0.00029  -0.00111   0.02317   0.02199  -1.02541
   D49       -3.03581   0.00136   0.00767   0.02958   0.03717  -2.99863
   D50       -0.97187   0.00137   0.00383   0.03717   0.04094  -0.93093
   D51        1.11415   0.00117   0.00656   0.02906   0.03553   1.14968
         Item               Value     Threshold  Converged?
 Maximum Force            0.014536     0.000450     NO 
 RMS     Force            0.001736     0.000300     NO 
 Maximum Displacement     0.176201     0.001800     NO 
 RMS     Displacement     0.054342     0.001200     NO 
 Predicted change in Energy=-1.005835D-03
 GradGradGradGradGradGradGradGradGradGradGradGradGradGradGradGradGradGrad

                          Input orientation:                          
 ---------------------------------------------------------------------
 Center     Atomic      Atomic             Coordinates (Angstroms)
 Number     Number       Type             X           Y           Z
 ---------------------------------------------------------------------
      1          8           0        1.098284    0.657143    1.234056
      2          8           0       -1.171449   -0.669313    1.204615
      3          6           0        0.787214    0.028759   -0.022522
      4          6           0       -0.768816   -0.018256   -0.000340
      5          6           0        1.387480   -1.377865   -0.053890
      6          6           0        1.352083    0.866657   -1.171978
      7          6           0       -1.364496    1.393351   -0.050803
      8          6           0       -1.352559   -0.865010   -1.121656
      9          1           0        0.900795   -2.014830    0.692630
     10          1           0        1.277000   -1.836700   -1.042791
     11          1           0        2.463857   -1.326171    0.164836
     12          1           0        1.033800    0.478966   -2.146633
     13          1           0        1.044403    1.914226   -1.084099
     14          1           0        2.450666    0.830627   -1.148519
     15          1           0       -1.249874    1.847739   -1.042194
     16          1           0       -2.435270    1.326294    0.173521
     17          1           0       -0.885069    2.045518    0.689774
     18          1           0       -1.054757   -1.914045   -1.021112
     19          1           0       -2.445982   -0.819953   -1.062111
     20          1           0       -1.046205   -0.492197   -2.105988
     21          1           0        2.048841    0.704825    1.334297
     22          1           0       -0.728946   -0.212266    1.924705
 ---------------------------------------------------------------------
                    Distance matrix (angstroms):
                    1          2          3          4          5
     1  O    0.000000
     2  O    2.629076   0.000000
     3  C    1.438965   2.414442   0.000000
     4  C    2.337939   1.427551   1.556898   0.000000
     5  C    2.425633   2.938366   1.529671   2.549708   0.000000
     6  C    2.428438   3.791518   1.530489   2.579538   2.507838
     7  C    2.873700   2.422379   2.548091   1.532976   3.905511
     8  C    3.724643   2.341503   2.566232   1.521545   2.985123
     9  H    2.733420   2.523240   2.168086   2.693346   1.095389
    10  H    3.381601   3.522574   2.181920   2.928959   1.095746
    11  H    2.634683   3.837714   2.163809   3.491145   1.099591
    12  H    3.385996   4.172832   2.185255   2.846617   2.820015
    13  H    2.637614   4.101571   2.179008   2.863003   3.466539
    14  H    2.745123   4.572393   2.162853   3.521929   2.684402
    15  H    3.480327   3.374884   2.915157   2.190620   4.282160
    16  H    3.749467   2.577371   3.479430   2.148282   4.688028
    17  H    2.481434   2.778017   2.714997   2.179205   4.175771
    18  H    4.041333   2.552809   2.857363   2.172038   2.680956
    19  H    4.473927   2.604836   3.500659   2.140785   4.002900
    20  H    4.132277   3.317702   2.823766   2.176079   3.304291
    21  H    0.957016   3.503618   1.972239   3.200514   2.588834
    22  H    2.138139   0.960849   2.479623   1.935207   3.122934
                    6          7          8          9         10
     6  C    0.000000
     7  C    2.985673   0.000000
     8  C    3.211898   2.499412   0.000000
     9  H    3.461703   4.159318   3.113089   0.000000
    10  H    2.707483   4.288912   2.804457   1.784641   0.000000
    11  H    2.798501   4.700913   4.053734   1.787730   1.768511
    12  H    1.096157   3.313673   2.924304   3.781286   2.576805
    13  H    1.095349   2.672417   3.670284   4.314495   3.758357
    14  H    1.099425   4.009627   4.164184   3.726735   2.916042
    15  H    2.783800   1.096569   2.715854   4.749150   4.467681
    16  H    4.045451   1.096072   2.766146   4.749938   5.026419
    17  H    3.140172   1.097099   3.459913   4.435734   4.769479
    18  H    3.680753   3.460679   1.095112   2.602163   2.333140
    19  H    4.157165   2.662906   1.095970   3.963302   3.859370
    20  H    2.910437   2.807203   1.096244   3.733830   2.887102
    21  H    2.606352   3.747458   4.479465   3.020972   3.564496
[...]
 71,0.00030974,0.00011485,0.00066415,-0.01008496,-0.01210615,-0.0164021
 0,-0.00075501,-0.00052712,-0.00067214,0.00012391,-0.00047392,0.0002916
 7,-0.07700712,-0.07744127,-0.25307717,0.00019344,0.00010460,-0.0001120
 9,-0.00028846,0.00005094,-0.00071414,0.00018845,0.00016070,0.00029320,
 -0.00015472,0.00084248,0.00029499,0.00021501,-0.00005844,0.00008853,0.
 08485864,0.08608945,0.27476892,-0.00035322,0.00028144,-0.00119284,-0.0
 0008677,0.00052064,-0.00019313,0.00298307,-0.01198305,-0.00289027,0.00
 086275,-0.00065647,-0.00046354,-0.00042571,-0.00080754,0.00135979,-0.0
 6483144,0.07018385,0.00855795,-0.00203104,-0.00028102,0.00048616,-0.00
 025013,0.00009851,-0.00010152,0.00065717,-0.00049415,0.00026787,-0.000
 21545,0.00009991,0.00011698,0.00028772,-0.00034359,0.00030216,0.002132
 36,-0.01146488,-0.00033170,0.07098741,0.00012706,0.00252896,-0.0010615
 6,-0.00047357,0.00049355,0.00001143,0.00530039,-0.01858116,-0.00395703
 ,0.00131755,-0.00089993,0.00004477,-0.00255747,-0.00099087,0.00349098,
 0.06840449,-0.29386091,-0.02820808,0.00122496,0.00002487,0.00045561,-0
 .00013345,0.00008543,-0.00004626,0.00070150,-0.00101995,0.00015358,-0.
 00006767,0.00049743,-0.00003528,0.00010140,0.00015413,-0.00001506,0.00
 241172,-0.00753704,0.00048516,-0.07576892,0.31864207,-0.00054181,-0.00
 115639,0.00276335,-0.00004110,-0.00023791,-0.00001094,-0.00799137,0.02
 475847,0.00217183,-0.00064500,-0.00040009,0.00034938,0.00243492,0.0022
 7331,-0.00407289,0.00812356,-0.03078657,-0.04947244,0.00089170,0.00018
 074,0.00065361,-0.00017584,-0.00001681,-0.00017842,-0.00051299,0.00155
 131,0.00015668,0.00009676,0.00003444,0.00020535,0.00004903,-0.00021159
 ,-0.00002340,0.00903841,-0.02602026,-0.00153973,-0.01047531,0.02928460
 ,0.05106581,0.00219174,0.00042910,0.00037299,-0.00083467,-0.00053329,0
 .00095660,-0.01448655,0.00037606,-0.00155905,0.00214186,-0.00073127,0.
 00107687,0.00076382,0.00105892,-0.00070526,-0.30654863,0.01550140,-0.0
 0052689,-0.00000426,-0.00009671,-0.00038972,0.00011208,0.00021696,-0.0
 0002177,0.00031870,0.00015179,0.00009912,-0.00017328,-0.00013655,0.000
 15355,0.00059564,-0.00066988,0.00020252,-0.00919926,0.00103849,0.00094
 989,-0.00706658,-0.00069430,-0.00032352,0.33271643,0.00076806,-0.00036
 302,-0.00144865,-0.00168538,-0.00015476,0.00095564,-0.02103467,-0.0005
 6097,-0.00005170,0.00127022,-0.00212259,0.00264575,-0.00107697,0.00079
 472,-0.00031447,0.01673222,-0.04609564,0.00001749,0.00079209,-0.000105
 03,0.00031725,0.00003887,0.00019208,-0.00004322,0.00017454,0.00018681,
 -0.00018618,-0.00009098,-0.00006841,-0.00027401,0.00032500,-0.00040102
 ,0.00061590,-0.01101886,-0.00035720,0.00063886,0.03021658,0.00008289,0
 .00075976,-0.01551782,0.04833719,-0.00084008,-0.00033480,0.00276330,0.
 00205054,0.00057264,-0.00099712,0.02805442,-0.00075849,-0.00133407,-0.
 00136487,0.00217670,-0.00353958,0.00042306,-0.00131991,0.00071542,-0.0
 0063107,-0.00053044,-0.04509462,-0.00013478,0.00032375,-0.00005491,-0.
 00008494,-0.00002258,-0.00041976,-0.00005262,-0.00034623,-0.00007746,-
 0.00023809,0.00001205,-0.00003678,-0.00052555,0.00034532,-0.00009970,-
 0.02847163,0.00275389,0.00097847,0.00381632,0.00013926,-0.00134131,-0.
 00185440,-0.00315984,0.04824400,-0.00046485,0.00004470,0.00028790,0.00
 064627,0.00293808,-0.00125650,0.00048038,-0.00050536,-0.00064816,0.000
 67871,0.00202648,-0.01147559,0.00001400,-0.00003845,0.00025405,-0.0016
 3755,0.00025985,0.00004128,-0.04816168,-0.01031569,0.02714049,0.000355
 25,-0.00050511,-0.00020711,0.00004451,-0.00010117,0.00002428,0.0000073
 7,0.00002693,0.00000306,-0.00000369,-0.00003391,-0.00001213,-0.0000493
 3,0.00003770,0.00022011,-0.00266725,0.00002996,-0.00008630,0.00005846,
 -0.00005127,0.00011211,0.05101230,-0.00013517,0.00020277,-0.00041531,0
 .00249173,-0.00875990,0.00414350,-0.00033917,0.00010872,0.00010645,-0.
 00696333,-0.00558906,0.02609175,-0.00007204,0.00006540,-0.00002531,0.0
 0010010,0.00022349,0.00009547,-0.00968830,-0.08704492,0.09298447,-0.00
 035182,0.00113528,0.00057565,-0.00011406,0.00010611,0.00002697,0.00003
 219,-0.00001187,-0.00005659,0.00004763,-0.00000430,-0.00003609,0.00019
 081,-0.00021058,-0.00024422,-0.00013329,0.00046934,-0.00006801,-0.0001
 1393,0.00013658,-0.00018359,0.01164700,0.09322842,-0.00053204,-0.00001
 711,0.00034105,-0.00073010,0.00097209,0.00156765,0.00006730,0.00068293
 ,-0.00084530,0.00075501,-0.00129230,-0.00196553,-0.00024358,-0.0001028
 6,0.00012233,0.00137534,0.00089528,0.00031326,0.02605096,0.09501465,-0
 .26809696,0.00009688,-0.00072637,0.00004907,0.00006327,-0.00012363,0.0
 0000745,-0.00000238,0.00005390,0.00003293,-0.00006798,0.00006383,-0.00
 001423,-0.00018133,0.00007845,-0.00012689,0.00021320,-0.00080285,0.000
 01883,0.00027119,-0.00061352,0.00005495,-0.03059979,-0.10429567,0.2894
 2653,-0.00000426,0.00025963,-0.00009000,0.00225289,-0.00155863,-0.0003
 7681,0.00068009,0.00244120,0.00011561,-0.01519426,-0.00126491,0.003196
 99,-0.00077103,-0.00035942,-0.00016955,0.00038006,-0.00002086,-0.00030
 054,-0.30241374,-0.01672294,0.05433134,0.00029813,-0.00070036,-0.00051
 232,0.00001057,0.00007042,-0.00005865,0.00000033,0.00003318,0.00005697
 ,-0.00006818,0.00033426,0.00002355,-0.00002678,0.00005832,0.00009069,0
 .00010466,0.00017203,-0.00010517,-0.00002116,0.00003175,0.00002601,-0.
 00113337,0.00011018,-0.00048756,0.32683414,-0.00045761,0.00051178,0.00
 000441,-0.00132907,0.00301073,-0.00169058,0.00052910,-0.00650346,-0.00
 013064,0.03263253,-0.00074580,-0.00669669,0.00181341,0.00062533,0.0002
 5192,-0.00066763,-0.00069536,0.00034738,-0.01938478,-0.04528314,0.0032
 5054,0.00092100,0.00134077,0.00072982,-0.00002593,0.00004779,0.0000179
 4,-0.00003276,0.00001074,-0.00005205,0.00036243,-0.00058381,0.00000305
 ,0.00000689,0.00002623,-0.00001328,0.00000507,0.00048044,-0.00000954,-
 0.00004582,0.00027426,-0.00003798,-0.01211216,-0.00157210,0.00129821,0
 .01622320,0.05077381,-0.00037303,0.00048628,0.00020639,-0.00055610,-0.
 00025902,-0.00005547,-0.00028541,0.00030214,-0.00074349,-0.00162300,0.
 00108500,-0.00088671,-0.00015392,-0.00002810,0.00011902,0.00052223,0.0
 0022507,0.00029117,0.05520981,0.00198252,-0.05694572,0.00071739,0.0001
 3229,-0.00037181,-0.00001057,-0.00002883,0.00001927,0.00001858,0.00003
 653,-0.00001043,-0.00003795,0.00003183,0.00003173,-0.00018337,0.000148
 79,0.00009011,-0.00000971,-0.00039884,-0.00024680,0.00010271,-0.000246
 58,0.00004763,0.02830710,0.00047576,-0.00486337,-0.05963782,-0.0032614
 2,0.05804552,-0.00255323,0.00087349,-0.00082778,-0.00039383,-0.0010003
 7,0.00073375,0.00047124,0.00028078,0.00098433,0.00627217,0.00793948,0.
 01046265,0.00022571,-0.00007230,-0.00011215,0.00001390,0.00008455,0.00
 005834,-0.09852009,-0.07192372,-0.07962223,-0.00108026,0.00258375,-0.0
 0042818,0.00000373,-0.00002539,0.00001758,0.00004204,-0.00008071,-0.00
 004179,0.00001805,-0.00004871,0.00000572,0.00004508,0.00000321,-0.0001
 7244,-0.00018324,-0.00017039,0.00034337,0.00002217,-0.00012517,-0.0000
 5569,0.00096600,0.00358103,0.00375581,-0.01125086,-0.01764600,-0.02120
 259,0.10453585,0.00013278,0.00048439,0.00059024,0.00038324,0.00261337,
 0.00066811,-0.00132939,-0.00057460,-0.00128908,-0.01463393,-0.01716575
 ,-0.02266289,-0.00015232,0.00013563,0.00015704,0.00024909,0.00021779,0
 .00021199,-0.07020903,-0.14143871,-0.10457575,0.00308198,-0.00533289,0
 .00160315,-0.00002041,-0.00000622,-0.00007412,-0.00010811,0.00009472,0
 .00011020,0.00009896,0.00006326,0.00003527,-0.00013782,0.00001734,0.00
 017559,0.00019017,-0.00004201,-0.00021836,0.00004263,0.00000992,-0.000
 02433,0.00685785,0.00831767,0.00907844,0.00043161,-0.00132067,-0.00016
 595,0.07537225,0.15536151,-0.00139771,0.00121726,-0.00037600,0.0005061
 9,-0.00064698,0.00124890,-0.00062631,-0.00118646,-0.00022919,0.0020808
 0,0.00128068,-0.00040856,0.00017708,0.00010227,-0.00010682,-0.00009331
 ,-0.00055682,-0.00004702,-0.07773953,-0.10585631,-0.16554000,0.0003331
 2,-0.00013603,0.00093918,-0.00002408,0.00007075,-0.00002114,-0.0000290
 1,-0.00000785,0.00001290,0.00007603,-0.00001626,0.00002113,-0.00012346
 ,0.00019898,0.00017544,0.00035420,0.00021798,-0.00051979,0.00001783,0.
 00021034,0.00008976,-0.01271606,-0.01777883,-0.01692638,0.00354300,0.0
 0588326,0.00526046,0.08619940,0.11669443,0.17605475,0.00006358,0.00048
 683,0.00019454,-0.00010033,0.00070752,0.00125374,0.00081463,-0.0006242
 5,0.00055031,0.00308251,-0.01266869,0.00273797,-0.00206933,-0.00033013
 ,-0.00040902,-0.00023361,0.00010450,0.00008322,-0.00049415,-0.00091649
 ,-0.00139481,-0.06527792,0.07083914,-0.00980505,-0.00020751,0.00018110
 ,-0.00038251,-0.00259760,-0.00016627,-0.00018193,0.00012654,0.00000290
 ,-0.00000566,0.00004850,-0.00003232,-0.00007512,0.00003212,0.00006412,
 -0.00002264,-0.00004238,-0.00007769,-0.00003602,-0.00021413,0.00006974
 ,-0.00012124,0.00026559,-0.00033741,-0.00029642,0.00065413,-0.00050283
 ,-0.00021879,0.07154245,-0.00031685,0.00050410,0.00001066,-0.00006887,
 0.00182202,0.00110063,0.00128209,-0.00091660,0.00002497,0.00595336,-0.
 01926978,0.00399716,0.00108778,0.00003909,-0.00044548,-0.00013277,0.00
 009890,0.00001953,-0.00268489,-0.00110820,-0.00355920,0.06892496,-0.29
 140720,0.03135442,-0.00020903,-0.00002129,-0.00026153,-0.00002040,0.00
 045128,0.00077351,0.00026064,0.00054266,0.00041793,0.00005679,-0.00010
 531,-0.00008317,0.00007213,0.00012984,-0.00004003,-0.00011991,-0.00004
 036,-0.00003520,-0.00007362,0.00046816,0.00003674,0.00005361,0.0001451
 4,0.00004112,0.00067886,-0.00108942,-0.00013205,-0.07620879,0.31686109
 ,0.00024736,0.00016767,-0.00001950,0.00031897,0.00058912,0.00212378,0.
 00058880,0.00042023,0.00038466,0.00820031,-0.02395484,0.00261845,-0.00
 087515,-0.00018837,0.00065551,0.00017302,0.00001757,-0.00018634,-0.002
 31994,-0.00221412,-0.00383966,-0.00957746,0.03427075,-0.05084928,-0.00
 042348,0.00019858,-0.00051931,0.00015915,0.00006243,0.00001932,0.00008
 612,0.00000231,-0.00024308,-0.00010107,0.00009895,0.00012615,0.0000219
 4,0.00003088,-0.00006926,0.00004867,0.00005021,0.00011130,-0.00008619,
 -0.00007838,0.00020249,-0.00007717,0.00019125,-0.00000514,0.00046750,-
 0.00150079,0.00020306,0.01206334,-0.03292017,0.05193249,-0.00093320,-0
 .00020386,-0.00055186,0.00114722,0.00035571,0.00024194,0.00168365,-0.0
 0084101,-0.00137776,-0.01499776,0.00035462,0.00116452,0.00012487,-0.00
 018242,0.00023686,0.00010393,0.00018537,-0.00001936,0.00074070,0.00104
 249,0.00078731,-0.31335082,0.01455643,0.00914909,0.00002600,0.00002677
 ,-0.00000143,0.00009218,-0.00011418,-0.00018281,-0.00005208,-0.0000369
 9,-0.00008107,0.00004761,0.00005949,-0.00009997,-0.00004296,-0.0000980
 2,-0.00003115,-0.00004062,-0.00004301,0.00003050,-0.00014773,-0.000193
 57,-0.00014751,0.00051603,-0.00062785,-0.00014346,0.00032142,0.0001853
 3,-0.00006210,-0.00702664,-0.00057957,0.00044547,0.33905335,-0.0016196
 5,0.00007020,-0.00057587,0.00104814,0.00024874,0.00136168,0.00104320,-
 0.00223370,-0.00269345,-0.02166579,-0.00071956,0.00048224,0.00076228,-
 0.00014068,-0.00034566,0.00001083,0.00017963,0.00002073,-0.00114326,0.
 00067184,0.00042457,0.01633962,-0.04581000,-0.00025901,-0.00012776,0.0
 0001421,-0.00022101,-0.00007123,0.00012024,0.00056981,0.00008046,0.000
 29098,0.00024889,0.00000543,-0.00004210,-0.00013451,-0.00008313,-0.000
 03875,-0.00004881,-0.00005485,-0.00008521,-0.00002161,-0.00006075,-0.0
 0006171,0.00026344,0.00030526,-0.00051091,-0.00070115,0.00020295,0.000
 19309,0.00016913,0.03037592,-0.00029518,-0.00168271,-0.01447084,0.0492
 3745,-0.00194597,-0.00027616,-0.00059091,0.00101106,0.00034138,0.00199
 611,0.00112419,-0.00207967,-0.00357671,-0.02752477,0.00046573,-0.00016
 339,0.00016096,-0.00035683,-0.00009300,0.00009430,0.00003296,-0.000370
 55,-0.00042062,0.00109858,0.00075429,0.01123677,0.00006254,-0.04483249
 ,0.00006537,0.00002303,0.00010217,-0.00009416,0.00014895,-0.00000278,-
 0.00004213,0.00003706,0.00002185,-0.00005203,-0.00005708,0.00040613,0.
 00003594,0.00003545,0.00011252,-0.00001568,0.00002199,0.00021214,0.000
 24647,0.00001022,-0.00004215,0.00044817,-0.00046899,-0.00006552,0.0000
 5352,0.00030611,-0.00010681,-0.00451755,-0.00005767,-0.00100172,-0.008
 55430,0.00366419,0.04728750,0.00030393,0.00005262,0.00048819,-0.000735
 37,-0.00141431,-0.00356410,0.00001148,0.00054477,-0.00007466,0.0033750
 0,0.00612468,-0.00989901,0.00021156,-0.00007341,-0.00018250,-0.0009262
 5,-0.00058377,-0.00020124,-0.00029241,0.00020224,0.00046986,-0.0698284
 9,-0.02683837,0.07344388,0.00006153,-0.00012682,0.00010478,-0.00000610
 ,0.00019506,0.00020989,-0.00001494,0.00002175,0.00018010,-0.00195497,-
 0.00128340,-0.00000012,0.00005524,0.00005441,0.00008748,0.00005577,0.0
 0000374,0.00004262,0.00023930,0.00023854,0.00006918,0.00007012,-0.0000
 6128,0.00011621,-0.00006619,0.00011786,-0.00006861,0.00174148,0.002164
 84,-0.00924405,-0.00742558,-0.01064236,0.02881552,0.07437349,0.0004249
 0,-0.00016446,0.00019898,-0.00174823,-0.00129115,-0.00416174,-0.000344
 79,0.00072198,0.00051177,0.00869559,0.00644664,-0.01347774,-0.00018941
 ,-0.00000605,0.00047818,-0.00040338,-0.00030328,0.00006412,0.00032984,
 0.00053998,0.00012343,-0.02692403,-0.07539844,0.07696517,-0.00002005,0
 .00000238,-0.00018578,0.00004523,-0.00019971,-0.00004233,0.00005307,0.
 00003217,-0.00013538,-0.00126093,-0.00009835,-0.00015064,-0.00003155,-
 0.00010352,-0.00009603,0.00006384,-0.00004309,0.00004454,-0.00004275,-
 0.00071886,-0.00014044,-0.00006760,-0.00003112,-0.00009616,-0.00011442
 ,0.00009795,0.00027907,-0.01078398,-0.00690179,0.02632644,0.00082182,-
 0.00061423,-0.00257536,0.03124068,0.07717058,-0.00021223,-0.00018919,0
 .00066777,-0.00317966,-0.00377375,-0.00552673,0.00058789,0.00049285,-0
 .00095774,0.01007177,0.01226796,-0.01651594,-0.00018021,-0.00011510,-0
 .00006942,0.00028931,-0.00002151,-0.00063896,-0.00009552,0.00072049,0.
 00017208,0.07187330,0.07422055,-0.25988733,0.00018613,-0.00016303,0.00
 016649,-0.00021428,0.00023588,-0.00017146,-0.00010141,0.00001519,0.000
 07190,0.00021874,0.00015472,0.00117175,0.00007841,0.00008324,0.0001321
 0,0.00013557,0.00012866,0.00042849,0.00014563,-0.00081257,0.00035570,-
 0.00017110,0.00006452,0.00007900,-0.00018091,-0.00017795,0.00030451,0.
 00043554,-0.00033647,-0.00191047,-0.00062595,-0.00033869,0.00008159,-0
 .07999872,-0.08306150,0.28312754,-0.52276806,0.04392672,-0.09439966,0.
 00058565,0.00003422,-0.00051716,-0.00909115,0.00162027,0.00109511,0.00
 067578,-0.00102386,-0.00157644,0.00281927,0.00027745,0.00244953,0.0017
 4489,0.00087339,0.00024583,0.00040417,-0.00018896,0.00006909,-0.000260
 16,0.00017979,0.00032609,-0.00025677,-0.00016477,-0.00024526,-0.000163
 52,0.00097132,0.00025434,-0.00027346,-0.00074415,-0.00007956,-0.000310
 03,-0.00022697,0.00054925,-0.00007730,-0.00004277,-0.00014846,-0.00047
 576,0.00034725,-0.00036233,-0.00007065,-0.00002306,-0.00004544,0.00006
 231,0.00002287,0.00003247,-0.00001141,-0.00012583,0.00005297,-0.000069
 96,-0.00007450,-0.00004356,0.00010692,-0.00014689,-0.00015590,-0.00000
 673,0.00001945,-0.00006597,0.52767115,0.06814825,-0.01583032,-0.005416
 92,-0.00015357,-0.00046448,-0.00043311,-0.01995063,0.00065624,-0.00444
 321,-0.00117729,-0.00272594,-0.00362979,-0.00270122,0.00063630,0.00056
 995,0.00061334,-0.00006858,0.00021988,0.00043611,-0.00029818,0.0000810
 3,-0.00116693,0.00036629,0.00019692,-0.00022784,-0.00045842,0.00005398
 ,0.00058872,0.00039311,0.00054157,0.00169385,-0.00076326,-0.00083079,-
 0.00025662,-0.00018670,-0.00013238,0.00043608,-0.00034886,0.00033510,-
 0.00013129,0.00048070,0.00025165,0.00016026,0.00003138,0.00020385,0.00
 004624,0.00003310,0.00015601,0.00001888,0.00049432,0.00013933,-0.00005
 061,-0.00013605,0.00004485,-0.00015911,-0.00027208,-0.00029297,0.00003
 901,0.00006004,0.00006412,-0.04610404,0.01828946,-0.05588636,-0.013095
 22,-0.04493084,0.00170341,0.00123439,0.00068995,-0.03817523,0.00260380
 ,-0.00753416,-0.00005006,-0.00271687,-0.00675161,-0.00066319,0.0004664
 2,0.00113761,-0.00129838,0.00035374,0.00040389,0.00040302,-0.00045530,
 0.00008282,-0.00145693,0.00027578,0.00064987,0.00046711,0.00025757,0.0
 0008251,0.00025542,0.00059822,-0.00001962,0.00103021,-0.00119479,0.000
 14645,0.00065158,-0.00009527,0.00030562,0.00000942,0.00011667,-0.00017
 703,0.00115141,0.00013827,-0.00091903,-0.00003335,0.00003859,0.0000194
 9,0.00007359,0.00008223,0.00004380,-0.00011686,0.00033115,0.00003018,-
 0.00000356,-0.00005431,0.00000286,-0.00015760,-0.00033362,-0.00037204,
 0.00003379,0.00007729,-0.00005291,0.09304623,0.01265601,0.05598717,-0.
 00260109,-0.00040108,-0.00133910,-0.14155542,-0.12989673,-0.19174616,0
 .00093473,0.00110876,0.00704542,0.00719093,0.00573089,0.00872283,-0.00
 082296,-0.00035328,-0.00052988,-0.00024006,-0.00041064,-0.00088434,-0.
 00039703,-0.00028964,0.00048480,-0.00118870,-0.00066729,0.00306889,0.0
 0001575,0.00061953,0.00025543,0.00027506,-0.00023832,-0.00037802,-0.00
 015111,0.00013144,0.00002117,0.00013282,0.00009599,-0.00051093,0.00012
 859,0.00009698,0.00003545,-0.00008354,0.00002151,0.00009649,0.00004769
 ,-0.00038117,0.00044081,-0.00059131,0.00021181,-0.00051318,0.00046761,
 0.00007592,-0.00024163,-0.00003798,-0.00004586,-0.00007258,0.00005352,
 -0.00008759,0.00003083,0.00075813,0.00023670,0.00100368,-0.00023519,-0
 .00010157,-0.00098368,0.13789958,-0.00141644,-0.00296750,0.00136505,-0
 .13272581,-0.13744236,-0.17758914,-0.00045392,0.00186072,0.00147679,0.
 00990823,0.00902365,0.01595914,0.00047193,0.00013374,-0.00057268,-0.00
 031143,-0.00032767,-0.00047696,0.00073118,0.00104146,0.00145715,-0.000
 82073,-0.00096936,0.00201080,0.00045947,-0.00087051,-0.00043201,-0.000
 16039,-0.00028686,0.00023046,-0.00014714,-0.00000738,0.00010353,0.0000
 4179,0.00005901,-0.00017314,-0.00005675,-0.00016595,0.00013266,-0.0000
 3357,-0.00009787,0.00015522,-0.00018855,-0.00052000,-0.00052706,0.0001
 2384,-0.00003375,0.00008272,-0.00041204,-0.00113067,-0.00014587,-0.000
 13232,0.00022890,0.00006815,-0.00003762,-0.00020229,-0.00008344,0.0000
 2352,0.00080233,0.00054158,0.00059308,0.00011192,-0.00128474,0.1245436
 6,0.13176044,-0.00197466,-0.00040517,-0.00070728,-0.15871123,-0.142394
 50,-0.29446612,0.00079051,-0.00091873,-0.00196339,-0.01636834,-0.01662
 646,-0.03469007,0.00008053,-0.00030139,-0.00004706,-0.00090006,-0.0001
 1610,-0.00037693,-0.00055495,0.00021365,0.00119064,0.00267626,0.003816
 92,-0.00529356,0.00041171,-0.00034876,-0.00011196,-0.00012176,0.000099
 73,0.00012170,-0.00016006,0.00002116,0.00008059,0.00002247,0.00001545,
 0.00004185,0.00003769,-0.00002464,0.00002255,-0.00014264,-0.00016195,0
 .00026887,0.00033871,-0.00055423,0.00036908,0.00008078,0.00023664,-0.0
 0003963,-0.00032134,0.00072752,-0.00005857,0.00015166,0.00014862,0.000
 26368,-0.00001936,0.00015143,0.00024376,-0.00082848,-0.00094591,-0.001
 02797,-0.00048114,-0.00033510,0.00117503,0.17599369,0.15770180,0.33500
 478\\0.00002216,0.00000232,0.00003932,-0.00000571,0.00001499,0.0000094
 8,-0.00000741,-0.00001950,-0.00000510,-0.00001498,0.00000694,-0.000020
 92,-0.00000023,0.00000722,-0.00000872,-0.00000786,-0.00000757,-0.00001
 554,-0.00001175,-0.00001173,0.00000126,-0.00000968,0.00000043,-0.00000
 968,0.00000391,-0.00000146,-0.00000327,-0.00000043,-0.00000672,0.00000
 460,0.00000304,0.00000167,-0.00000350,0.00000346,0.00000565,0.00000075
 ,0.00000100,-0.00000367,-0.00000153,0.00000242,-0.00000162,0.00000361,
 -0.00000097,0.00000259,0.00000892,-0.00000112,-0.00000136,0.00000465,-
 0.00000215,-0.00000011,-0.00000096,0.00000198,0.00000366,-0.00000140,-
 0.00000216,-0.00000440,-0.00000177,-0.00000493,-0.00000169,-0.00000667
 ,-0.00000313,0.00000232,0.00000419,0.00003452,0.00001204,0.00000228\\\
 @


    UPON JULIA'S CLOTHES

 WHENAS IN SILKS MY JULIA GOES,
 THEN, THEN, METHINKS, HOW SWEETLY FLOWS
 THAT LIQUEFACTION OF HER CLOTHES.

 NEXT, WHEN I CAST MINE EYES, AND SEE
 THAT BRAVE VIBRATION, EACH WAY FREE,
 O, HOW THAT GLITTERING TAKETH ME!
     -- ROBERT HERRICK, 1648
 Job cpu time:       0 days  1 hours 59 minutes 14.7 seconds.
 Elapsed time:       0 days  0 hours  7 minutes 30.8 seconds.
 File lengths (MBytes):  RWF=    147 Int=      0 D2E=      0 Chk=      7 Scr=      1
 Normal termination of Gaussian 16 at Fri Oct 10 01:12:01 2025.
