 Entering Gaussian System, Link 0=g16
 Input=PNEE0145.gjf
 Output=PNEE0145.log
 Initial command:
 /usr/local/g16/l1.exe "/dados_01/scratch/Gau-2186755.inp" -scrdir="/dados_01/scratch/"
 Entering Link 1 = /usr/local/g16/l1.exe PID=   2186759.
  
 Copyright (c) 1988-2017, Gaussian, Inc.  All Rights Reserved.
  
 This is part of the Gaussian(R) 16 program.  It is based on
 the Gaussian(R) 09 system (copyright 2009, Gaussian, Inc.),
 the Gaussian(R) 03 system (copyright 2003, Gaussian, Inc.),
 the Gaussian(R) 98 system (copyright 1998, Gaussian, Inc.),
 the Gaussian(R) 94 system (copyright 1995, Gaussian, Inc.),
 the Gaussian 92(TM) system (copyright 1992, Gaussian, Inc.),
 the Gaussian 90(TM) system (copyright 1990, Gaussian, Inc.),
 the Gaussian 88(TM) system (copyright 1988, Gaussian, Inc.),
 the Gaussian 86(TM) system (copyright 1986, Carnegie Mellon
 University), and the Gaussian 82(TM) system (copyright 1983,
 Carnegie Mellon University). Gaussian is a federally registered
 trademark of Gaussian, Inc.
  
 This software contains proprietary and confidential information,
 including trade secrets, belonging to Gaussian, Inc.
  
 This software is provided under written license and may be
 used, copied, transmitted, or stored only in accord with that
 written license.
  
 The following legend is applicable only to US Government
 contracts under FAR:
  
                    RESTRICTED RIGHTS LEGEND
  
 Use, reproduction and disclosure by the US Government is
 subject to restrictions as set forth in subparagraphs (a)
 and (c) of the Commercial Computer Software - Restricted
 Rights clause in FAR 52.227-19.
  
 Gaussian, Inc.
 340 Quinnipiac St., Bldg. 40, Wallingford CT 06492
  
  
 ---------------------------------------------------------------
 Warning -- This program may not be used in any manner that
 competes with the business of Gaussian, Inc. or will provide
 assistance to any competitor of Gaussian, Inc.  The licensee
 of this program is prohibited from giving any competitor of
 Gaussian, Inc. access to this program.  By using this program,
 the user acknowledges that Gaussian, Inc. is engaged in the
 business of creating and licensing software in the field of
 computational chemistry and represents and warrants to the
 licensee that it is not a competitor of Gaussian, Inc. and that
 it will not use this program in any manner prohibited above.
 ---------------------------------------------------------------
  

 Cite this work as:
 Gaussian 16, Revision B.01,
 M. J. Frisch, G. W. Trucks, H. B. Schlegel, G. E. Scuseria, 
 M. A. Robb, J. R. Cheeseman, G. Scalmani, V. Barone, 
 G. A. Petersson, H. Nakatsuji, X. Li, M. Caricato, A. V. Marenich, 
 J. Bloino, B. G. Janesko, R. Gomperts, B. Mennucci, H. P. Hratchian, 
 J. V. Ortiz, A. F. Izmaylov, J. L. Sonnenberg, D. Williams-Young, 
 F. Ding, F. Lipparini, F. Egidi, J. Goings, B. Peng, A. Petrone, 
 T. Henderson, D. Ranasinghe, V. G. Zakrzewski, J. Gao, N. Rega, 
 G. Zheng, W. Liang, M. Hada, M. Ehara, K. Toyota, R. Fukuda, 
 J. Hasegawa, M. Ishida, T. Nakajima, Y. Honda, O. Kitao, H. Nakai, 
 T. Vreven, K. Throssell, J. A. Montgomery, Jr., J. E. Peralta, 
 F. Ogliaro, M. J. Bearpark, J. J. Heyd, E. N. Brothers, K. N. Kudin, 
 V. N. Staroverov, T. A. Keith, R. Kobayashi, J. Normand, 
 K. Raghavachari, A. P. Rendell, J. C. Burant, S. S. Iyengar, 
 J. Tomasi, M. Cossi, J. M. Millam, M. Klene, C. Adamo, R. Cammi, 
 J. W. Ochterski, R. L. Martin, K. Morokuma, O. Farkas, 
 J. B. Foresman, and D. J. Fox, Gaussian, Inc., Wallingford CT, 2016.
 
 ******************************************
 Gaussian 16:  ES64L-G16RevB.01 20-Dec-2017
                21-Sep-2025 
 ******************************************
 %nprocs=16
 Will use up to   16 processors via shared memory.
 %mem=40GB
 %chk=PNEE0145.chk
 ----------------------------------------------------------------------
 # opt freq=noraman M08HX/6-311++G** scf=xqc Empiricaldispersion=pfd In
 t(Grid=ultraFine)
 ----------------------------------------------------------------------
 1/18=20,19=15,26=4,38=1/1,3;
 2/9=110,12=2,17=6,18=5,40=1/2;
 3/5=4,6=6,7=1111,11=2,25=1,30=1,71=1,74=-74,75=-5,124=11/1,2,3;
 4//1;
 5/5=2,8=3,13=1,38=5/2,8;
 6/7=2,8=2,9=2,10=2,28=1/1;
 7//1,2,3,16;
 1/18=20,19=15,26=4/3(2);
 2/9=110/2;
 99//99;
 2/9=110/2;
 3/5=4,6=6,7=1111,11=2,25=1,30=1,71=1,74=-74,75=-5,124=11/1,2,3;
 4/5=5,16=3,69=1/1;
 5/5=2,8=3,13=1,38=5/2,8;
 7//1,2,3,16;
 1/18=20,19=15,26=4/3(-5);
 2/9=110/2;
 6/7=2,8=2,9=2,10=2,19=2,28=1/1;
 99/9=1/99;
 --------
 PNEE0145
 --------
 Symbolic Z-matrix:
 Charge =  0 Multiplicity = 1
 O                     1.439    -0.4585    0.4268 
 C                     0.1147   -0.2271    0.2162 
 C                     2.3537    0.5329   -0.0385 
 C                    -0.367     1.0814    0.175 
 C                    -0.7614   -1.2986    0.0422 
 C                     3.6652   -0.1344   -0.3942 
 C                    -1.7246    1.3185   -0.0401 
 C                    -2.1191   -1.0614   -0.1731 
 C                    -2.6006    0.2472   -0.2142 
 H                     1.9857    1.0364   -0.9413 
 H                     2.5169    1.2721    0.7535 
 H                     0.2758    1.9422    0.3333 
 H                    -0.3921   -2.32      0.0733 
 H                     4.3956    0.5998   -0.7457 
 H                     4.08     -0.6567    0.4743 
 H                     3.5158   -0.8867   -1.176 
 H                    -2.1012    2.3369   -0.0658 
 H                    -2.8014   -1.8956   -0.3082 
 H                    -3.6579    0.4317   -0.3802 
 

 GradGradGradGradGradGradGradGradGradGradGradGradGradGradGradGradGradGrad
 Berny optimization.
 Initialization pass.
                           ----------------------------
                           !    Initial Parameters    !
                           ! (Angstroms and Degrees)  !
 --------------------------                            --------------------------
 ! Name  Definition              Value          Derivative Info.                !
 --------------------------------------------------------------------------------
 ! R1    R(1,2)                  1.3608         estimate D2E/DX2                !
 ! R2    R(1,3)                  1.4269         estimate D2E/DX2                !
 ! R3    R(2,4)                  1.395          estimate D2E/DX2                !
 ! R4    R(2,5)                  1.395          estimate D2E/DX2                !
 ! R5    R(3,6)                  1.5139         estimate D2E/DX2                !
 ! R6    R(3,10)                 1.0973         estimate D2E/DX2                !
 ! R7    R(3,11)                 1.0956         estimate D2E/DX2                !
 ! R8    R(4,7)                  1.3948         estimate D2E/DX2                !
 ! R9    R(4,12)                 1.0859         estimate D2E/DX2                !
 ! R10   R(5,8)                  1.395          estimate D2E/DX2                !
 ! R11   R(5,13)                 1.0866         estimate D2E/DX2                !
 ! R12   R(6,14)                 1.0937         estimate D2E/DX2                !
 ! R13   R(6,15)                 1.0951         estimate D2E/DX2                !
 ! R14   R(6,16)                 1.0952         estimate D2E/DX2                !
 ! R15   R(7,9)                  1.3948         estimate D2E/DX2                !
 ! R16   R(7,17)                 1.0861         estimate D2E/DX2                !
 ! R17   R(8,9)                  1.395          estimate D2E/DX2                !
 ! R18   R(8,18)                 1.0861         estimate D2E/DX2                !
 ! R19   R(9,19)                 1.086          estimate D2E/DX2                !
 ! A1    A(2,1,3)              117.0806         estimate D2E/DX2                !
 ! A2    A(1,2,4)              120.0097         estimate D2E/DX2                !
 ! A3    A(1,2,5)              119.9933         estimate D2E/DX2                !
 ! A4    A(4,2,5)              119.997          estimate D2E/DX2                !
 ! A5    A(1,3,6)              109.0082         estimate D2E/DX2                !
 ! A6    A(1,3,10)             111.8468         estimate D2E/DX2                !
 ! A7    A(1,3,11)             109.1801         estimate D2E/DX2                !
 ! A8    A(6,3,10)             107.427          estimate D2E/DX2                !
 ! A9    A(6,3,11)             109.7676         estimate D2E/DX2                !
 ! A10   A(10,3,11)            109.5811         estimate D2E/DX2                !
 ! A11   A(2,4,7)              120.0067         estimate D2E/DX2                !
 ! A12   A(2,4,12)             122.3337         estimate D2E/DX2                !
 ! A13   A(7,4,12)             117.6373         estimate D2E/DX2                !
 ! A14   A(2,5,8)              119.9934         estimate D2E/DX2                !
 ! A15   A(2,5,13)             120.3331         estimate D2E/DX2                !
 ! A16   A(8,5,13)             119.6735         estimate D2E/DX2                !
 ! A17   A(3,6,14)             110.988          estimate D2E/DX2                !
 ! A18   A(3,6,15)             110.6124         estimate D2E/DX2                !
 ! A19   A(3,6,16)             110.6294         estimate D2E/DX2                !
 ! A20   A(14,6,15)            108.7914         estimate D2E/DX2                !
 ! A21   A(14,6,16)            108.833          estimate D2E/DX2                !
 ! A22   A(15,6,16)            106.8697         estimate D2E/DX2                !
 ! A23   A(4,7,9)              119.9989         estimate D2E/DX2                !
 ! A24   A(4,7,17)             120.0347         estimate D2E/DX2                !
 ! A25   A(9,7,17)             119.9653         estimate D2E/DX2                !
 ! A26   A(5,8,9)              119.9999         estimate D2E/DX2                !
 ! A27   A(5,8,18)             120.0004         estimate D2E/DX2                !
 ! A28   A(9,8,18)             119.9996         estimate D2E/DX2                !
 ! A29   A(7,9,8)              120.0041         estimate D2E/DX2                !
 ! A30   A(7,9,19)             120.0025         estimate D2E/DX2                !
 ! A31   A(8,9,19)             119.9934         estimate D2E/DX2                !
 ! D1    D(3,1,2,4)            -30.0032         estimate D2E/DX2                !
 ! D2    D(3,1,2,5)            150.0312         estimate D2E/DX2                !
 ! D3    D(2,1,3,6)           -150.6026         estimate D2E/DX2                !
 ! D4    D(2,1,3,10)           -31.9574         estimate D2E/DX2                !
 ! D5    D(2,1,3,11)            89.4924         estimate D2E/DX2                !
 ! D6    D(1,2,4,7)           -179.9626         estimate D2E/DX2                !
 ! D7    D(1,2,4,12)            -1.7211         estimate D2E/DX2                !
 ! D8    D(5,2,4,7)              0.003          estimate D2E/DX2                !
 ! D9    D(5,2,4,12)           178.2445         estimate D2E/DX2                !
 ! D10   D(1,2,5,8)            179.9713         estimate D2E/DX2                !
 ! D11   D(1,2,5,13)            -0.0322         estimate D2E/DX2                !
 ! D12   D(4,2,5,8)              0.0057         estimate D2E/DX2                !
 ! D13   D(4,2,5,13)          -179.9978         estimate D2E/DX2                !
 ! D14   D(1,3,6,14)          -179.3972         estimate D2E/DX2                !
 ! D15   D(1,3,6,15)           -58.54           estimate D2E/DX2                !
 ! D16   D(1,3,6,16)            59.6816         estimate D2E/DX2                !
 ! D17   D(10,3,6,14)           59.2264         estimate D2E/DX2                !
 ! D18   D(10,3,6,15)         -179.9164         estimate D2E/DX2                !
 ! D19   D(10,3,6,16)          -61.6947         estimate D2E/DX2                !
 ! D20   D(11,3,6,14)          -59.8561         estimate D2E/DX2                !
 ! D21   D(11,3,6,15)           61.0011         estimate D2E/DX2                !
 ! D22   D(11,3,6,16)          179.2228         estimate D2E/DX2                !
 ! D23   D(2,4,7,9)             -0.0087         estimate D2E/DX2                !
 ! D24   D(2,4,7,17)           179.6007         estimate D2E/DX2                !
 ! D25   D(12,4,7,9)          -178.3316         estimate D2E/DX2                !
 ! D26   D(12,4,7,17)            1.2778         estimate D2E/DX2                !
 ! D27   D(2,5,8,9)             -0.0087         estimate D2E/DX2                !
 ! D28   D(2,5,8,18)          -179.9758         estimate D2E/DX2                !
 ! D29   D(13,5,8,9)           179.9947         estimate D2E/DX2                !
 ! D30   D(13,5,8,18)            0.0276         estimate D2E/DX2                !
 ! D31   D(4,7,9,8)              0.0057         estimate D2E/DX2                !
 ! D32   D(4,7,9,19)           179.9084         estimate D2E/DX2                !
 ! D33   D(17,7,9,8)          -179.604          estimate D2E/DX2                !
 ! D34   D(17,7,9,19)            0.2987         estimate D2E/DX2                !
 ! D35   D(5,8,9,7)              0.003          estimate D2E/DX2                !
 ! D36   D(5,8,9,19)          -179.8997         estimate D2E/DX2                !
 ! D37   D(18,8,9,7)           179.9701         estimate D2E/DX2                !
 ! D38   D(18,8,9,19)            0.0675         estimate D2E/DX2                !
 --------------------------------------------------------------------------------
 Trust Radius=3.00D-01 FncErr=1.00D-07 GrdErr=1.00D-06 EigMax=2.50D+02 EigMin=1.00D-04
 Number of steps in this run=     98 maximum allowed number of steps=    114.
 GradGradGradGradGradGradGradGradGradGradGradGradGradGradGradGradGradGrad

                          Input orientation:                          
 ---------------------------------------------------------------------
 Center     Atomic      Atomic             Coordinates (Angstroms)
 Number     Number       Type             X           Y           Z
 ---------------------------------------------------------------------
      1          8           0        1.439000   -0.458500    0.426800
      2          6           0        0.114700   -0.227100    0.216200
      3          6           0        2.353700    0.532900   -0.038500
      4          6           0       -0.367000    1.081400    0.175000
      5          6           0       -0.761400   -1.298600    0.042200
      6          6           0        3.665200   -0.134400   -0.394200
      7          6           0       -1.724600    1.318500   -0.040100
      8          6           0       -2.119100   -1.061400   -0.173100
      9          6           0       -2.600600    0.247200   -0.214200
     10          1           0        1.985700    1.036400   -0.941300
     11          1           0        2.516900    1.272100    0.753500
     12          1           0        0.275800    1.942200    0.333300
     13          1           0       -0.392100   -2.320000    0.073300
     14          1           0        4.395600    0.599800   -0.745700
     15          1           0        4.080000   -0.656700    0.474300
     16          1           0        3.515800   -0.886700   -1.176000
     17          1           0       -2.101200    2.336900   -0.065800
     18          1           0       -2.801400   -1.895600   -0.308200
     19          1           0       -3.657900    0.431700   -0.380200
 ---------------------------------------------------------------------
                    Distance matrix (angstroms):
                    1          2          3          4          5
     1  O    0.000000
     2  C    1.360760   0.000000
     3  C    1.426904   2.378149   0.000000
     4  C    2.386699   1.394957   2.783638   0.000000
     5  C    2.386513   1.394969   3.614520   2.416110   0.000000
     6  C    2.394796   3.603780   1.513884   4.249799   4.597890
     7  C    3.658427   2.416111   4.153276   1.394834   2.789935
     8  C    3.658339   2.416086   4.750353   2.789735   1.394979
     9  C    4.150574   2.789813   4.965640   2.415851   2.416174
    10  H    2.098882   2.537101   1.097262   2.604486   3.737119
    11  H    2.064843   2.882162   1.095589   2.947526   4.226310
    12  H    2.669295   2.178423   2.538115   1.085922   3.415159
    13  H    2.634971   2.158124   3.961181   3.403013   1.086558
    14  H    3.352050   4.464876   2.161935   4.874627   5.551519
    15  H    2.648853   3.996846   2.158292   4.783971   4.902846
    16  H    2.658086   3.733735   2.158622   4.557933   4.466331
    17  H    4.537613   3.400564   4.806381   2.154464   3.876027
    18  H    4.537232   3.400372   5.704858   3.875863   2.154249
    19  H    5.236611   3.875851   6.022154   3.400056   3.400305
                    6          7          8          9         10
     6  C    0.000000
     7  C    5.593411   0.000000
     8  C    5.862281   2.416039   0.000000
     9  C    6.279990   1.394765   1.394979   0.000000
    10  H    2.119153   3.828586   4.673358   4.710165   0.000000
    11  H    2.148034   4.315354   5.272220   5.308076   1.791668
    12  H    4.040985   2.128387   3.874739   3.383261   2.317075
    13  H    4.632179   3.876480   2.151120   3.398624   4.236599
    14  H    1.093657   6.202520   6.747501   7.025214   2.456928
    15  H    1.095056   6.153000   6.245939   6.776539   3.042467
    16  H    1.095211   5.797842   5.726118   6.294532   2.468725
    17  H    6.282240   1.086106   3.400041   2.153664   4.377277
    18  H    6.702696   3.400267   1.086128   2.154240   5.649227
    19  H    7.344961   2.154004   2.154099   1.086038   5.703570
                   11         12         13         14         15
    11  H    0.000000
    12  H    2.376580   0.000000
    13  H    4.672059   4.322041   0.000000
    14  H    2.495817   4.465314   5.667280   0.000000
    15  H    2.498300   4.609349   4.788220   1.779549   0.000000
    16  H    3.062873   4.558318   4.345893   1.780137   1.759179
    17  H    4.809563   2.442375   4.962569   6.759304   6.889164
    18  H    6.280593   4.960785   2.475961   7.629891   7.035684
    19  H    6.334012   4.273721   4.294527   8.063542   7.860654
                   16         17         18         19
    16  H    0.000000
    17  H    6.570756   0.000000
    18  H    6.455848   4.296870   0.000000
    19  H    7.337128   2.480312   2.480948   0.000000
 Stoichiometry    C8H10O
 Framework group  C1[X(C8H10O)]
 Deg. of freedom    51
 Full point group                 C1      NOp   1
 Largest Abelian subgroup         C1      NOp   1
 Largest concise Abelian subgroup C1      NOp   1
                         Standard orientation:                         
 ---------------------------------------------------------------------
 Center     Atomic      Atomic             Coordinates (Angstroms)
 Number     Number       Type             X           Y           Z
 ---------------------------------------------------------------------
      1          8           0       -1.272819   -0.472093   -0.456361
      2          6           0        0.049475   -0.238422   -0.235894
      3          6           0       -2.193640    0.510378    0.015756
      4          6           0        0.526122    1.071231   -0.176550
      5          6           0        0.928576   -1.308737   -0.069926
      6          6           0       -3.504554   -0.165856    0.356428
      7          6           0        1.881670    1.310669    0.048664
      8          6           0        2.284222   -1.069201    0.155490
      9          6           0        2.760669    0.240552    0.214734
     10          1           0       -1.832328    1.004423    0.926446
     11          1           0       -2.355329    1.258359   -0.768270
     12          1           0       -0.118992    1.931521   -0.328067
     13          1           0        0.563214   -2.331025   -0.115153
     14          1           0       -4.239523    0.561457    0.712691
     15          1           0       -3.912779   -0.679277   -0.520440
     16          1           0       -3.356562   -0.926864    1.130025
     17          1           0        2.254371    2.330048    0.088496
     18          1           0        2.968861   -1.902474    0.284338
     19          1           0        3.816380    0.426891    0.388609
 ---------------------------------------------------------------------
 Rotational constants (GHZ):           4.5729741           0.9453877           0.8102631
 Standard basis: 6-311++G(d,p) (5D, 7F)
 There are   277 symmetry adapted cartesian basis functions of A   symmetry.
 There are   268 symmetry adapted basis functions of A   symmetry.
   268 basis functions,   414 primitive gaussians,   277 cartesian basis functions
    33 alpha electrons       33 beta electrons
       nuclear repulsion energy       420.3560730336 Hartrees.
 NAtoms=   19 NActive=   19 NUniq=   19 SFac= 1.00D+00 NAtFMM=   60 NAOKFM=F Big=F
 Integral buffers will be    131072 words long.
 Raffenetti 2 integral format.
 Two-electron integral symmetry is turned on.
 R6APFD:  NTU= -4 IXU= 1 FactS= 1.050
 Nuclear repulsion after empirical dispersion term =      420.3470796016 Hartrees.
 One-electron integrals computed using PRISM.
 NBasis=   268 RedAO= T EigKep=  4.46D-06  NBF=   268
 NBsUse=   267 1.00D-06 EigRej=  8.69D-07 NBFU=   267
 ExpMin= 3.60D-02 ExpMax= 8.59D+03 ExpMxC= 1.30D+03 IAcc=3 IRadAn=         5 AccDes= 0.00D+00
 Harris functional with IExCor= 1009 and IRadAn=       5 diagonalized for initial guess.
 HarFok:  IExCor= 1009 AccDes= 0.00D+00 IRadAn=         5 IDoV= 1 UseB2=F ITyADJ=14
 ICtDFT=  3500011 ScaDFX=  1.000000  1.000000  1.000000  1.000000
 FoFCou: FMM=F IPFlag=           0 FMFlag=      100000 FMFlg1=           0
         NFxFlg=           0 DoJE=T BraDBF=F KetDBF=T FulRan=T
         wScrn=  0.000000 ICntrl=       500 IOpCl=  0 I1Cent=   200000004 NGrid=           0
         NMat0=    1 NMatS0=      1 NMatT0=    0 NMatD0=    1 NMtDS0=    0 NMtDT0=    0
 Petite list used in FoFCou.
 Requested convergence on RMS density matrix=1.00D-08 within  32 cycles.
 Requested convergence on MAX density matrix=1.00D-06.
 Requested convergence on             energy=1.00D-06.
 No special actions if energy rises.
 SCF Done:  E(RM08HX) =  -386.079952952     A.U. after   14 cycles
            NFock= 14  Conv=0.50D-08     -V/T= 2.0049
 QCSCF skips out because SCF is already converged.

 **********************************************************************

            Population analysis using the SCF Density.

 **********************************************************************

 Orbital symmetries:
       Occupied  (A) (A) (A) (A) (A) (A) (A) (A) (A) (A) (A) (A)
                 (A) (A) (A) (A) (A) (A) (A) (A) (A) (A) (A) (A)
                 (A) (A) (A) (A) (A) (A) (A) (A) (A)
       Virtual   (A) (A) (A) (A) (A) (A) (A) (A) (A) (A) (A) (A)
                 (A) (A) (A) (A) (A) (A) (A) (A) (A) (A) (A) (A)
                 (A) (A) (A) (A) (A) (A) (A) (A) (A) (A) (A) (A)
                 (A) (A) (A) (A) (A) (A) (A) (A) (A) (A) (A) (A)
                 (A) (A) (A) (A) (A) (A) (A) (A) (A) (A) (A) (A)
                 (A) (A) (A) (A) (A) (A) (A) (A) (A) (A) (A) (A)
                 (A) (A) (A) (A) (A) (A) (A) (A) (A) (A) (A) (A)
                 (A) (A) (A) (A) (A) (A) (A) (A) (A) (A) (A) (A)
                 (A) (A) (A) (A) (A) (A) (A) (A) (A) (A) (A) (A)
                 (A) (A) (A) (A) (A) (A) (A) (A) (A) (A) (A) (A)
                 (A) (A) (A) (A) (A) (A) (A) (A) (A) (A) (A) (A)
                 (A) (A) (A) (A) (A) (A) (A) (A) (A) (A) (A) (A)
                 (A) (A) (A) (A) (A) (A) (A) (A) (A) (A) (A) (A)
                 (A) (A) (A) (A) (A) (A) (A) (A) (A) (A) (A) (A)
                 (A) (A) (A) (A) (A) (A) (A) (A) (A) (A) (A) (A)
                 (A) (A) (A) (A) (A) (A) (A) (A) (A) (A) (A) (A)
                 (A) (A) (A) (A) (A) (A) (A) (A) (A) (A) (A) (A)
                 (A) (A) (A) (A) (A) (A) (A) (A) (A) (A) (A) (A)
                 (A) (A) (A) (A) (A) (A) (A) (A) (A) (A) (A) (A)
                 (A) (A) (A) (A) (A) (A)
 The electronic state is 1-A.
 Alpha  occ. eigenvalues --  -19.63665 -10.59705 -10.58767 -10.53841 -10.53839
 Alpha  occ. eigenvalues --  -10.53405 -10.53343 -10.52977 -10.52342  -1.18867
 Alpha  occ. eigenvalues --   -0.96712  -0.88456  -0.85351  -0.82825  -0.73585
 Alpha  occ. eigenvalues --   -0.69832  -0.67376  -0.62203  -0.56788  -0.56463
 Alpha  occ. eigenvalues --   -0.55080  -0.51864  -0.49516  -0.48164  -0.46770
 Alpha  occ. eigenvalues --   -0.46315  -0.43252  -0.42552  -0.42125  -0.40051
 Alpha  occ. eigenvalues --   -0.37761  -0.31346  -0.28404
 Alpha virt. eigenvalues --   -0.02817  -0.01657  -0.01237  -0.00179   0.00337
 Alpha virt. eigenvalues --    0.00524   0.00723   0.01841   0.02163   0.03025
 Alpha virt. eigenvalues --    0.03309   0.03972   0.04103   0.05532   0.06862
 Alpha virt. eigenvalues --    0.07060   0.07373   0.08236   0.10231   0.10391
 Alpha virt. eigenvalues --    0.10936   0.11392   0.11535   0.11767   0.12069
 Alpha virt. eigenvalues --    0.12239   0.12383   0.13041   0.13227   0.13647
 Alpha virt. eigenvalues --    0.13967   0.14953   0.15516   0.16493   0.16914
 Alpha virt. eigenvalues --    0.17426   0.18149   0.18475   0.19309   0.19649
 Alpha virt. eigenvalues --    0.20483   0.20893   0.21619   0.22160   0.22977
 Alpha virt. eigenvalues --    0.23910   0.24482   0.25423   0.25491   0.26601
 Alpha virt. eigenvalues --    0.29231   0.30145   0.30568   0.31477   0.31732
 Alpha virt. eigenvalues --    0.32356   0.32593   0.34139   0.37061   0.37395
 Alpha virt. eigenvalues --    0.37840   0.38670   0.40333   0.41668   0.43145
 Alpha virt. eigenvalues --    0.46981   0.49073   0.51059   0.52791   0.55333
 Alpha virt. eigenvalues --    0.56136   0.57074   0.58008   0.58730   0.59081
 Alpha virt. eigenvalues --    0.60398   0.61830   0.62470   0.64705   0.65898
 Alpha virt. eigenvalues --    0.66748   0.67064   0.67774   0.68111   0.69144
 Alpha virt. eigenvalues --    0.70972   0.71443   0.72844   0.73955   0.74358
 Alpha virt. eigenvalues --    0.76609   0.76848   0.78064   0.81202   0.81778
 Alpha virt. eigenvalues --    0.84892   0.87010   0.87403   0.87610   0.89876
 Alpha virt. eigenvalues --    0.91381   0.92768   0.93387   0.94382   0.97173
 Alpha virt. eigenvalues --    0.99896   1.01920   1.04279   1.05107   1.06194
 Alpha virt. eigenvalues --    1.10265   1.12845   1.13560   1.17772   1.19545
 Alpha virt. eigenvalues --    1.20728   1.25893   1.29564   1.30440   1.35559
 Alpha virt. eigenvalues --    1.37304   1.40265   1.49276   1.50858   1.53307
 Alpha virt. eigenvalues --    1.55155   1.56236   1.57711   1.58858   1.59180
 Alpha virt. eigenvalues --    1.60274   1.61504   1.62617   1.63945   1.66086
 Alpha virt. eigenvalues --    1.66511   1.67618   1.68522   1.72183   1.73031
 Alpha virt. eigenvalues --    1.75112   1.77717   1.80017   1.81094   1.82478
 Alpha virt. eigenvalues --    1.84801   1.88253   1.89358   1.93981   1.96780
 Alpha virt. eigenvalues --    1.97391   1.98112   1.98815   2.00716   2.02560
 Alpha virt. eigenvalues --    2.04520   2.06048   2.08467   2.10085   2.12449
 Alpha virt. eigenvalues --    2.13031   2.16406   2.23081   2.28776   2.32197
 Alpha virt. eigenvalues --    2.34543   2.35912   2.39658   2.43368   2.44518
 Alpha virt. eigenvalues --    2.46476   2.48348   2.50122   2.52892   2.54048
 Alpha virt. eigenvalues --    2.58079   2.60206   2.62640   2.63796   2.66103
 Alpha virt. eigenvalues --    2.66781   2.67578   2.69671   2.70517   2.71394
 Alpha virt. eigenvalues --    2.72183   2.72912   2.76058   2.82467   2.86179
 Alpha virt. eigenvalues --    2.87619   2.88536   2.89111   2.96155   2.96665
 Alpha virt. eigenvalues --    2.98456   3.00230   3.05312   3.16106   3.18072
 Alpha virt. eigenvalues --    3.20324   3.24538   3.29416   3.36247   3.40723
 Alpha virt. eigenvalues --    3.45301   3.47545   3.55447   3.56349   3.65132
 Alpha virt. eigenvalues --    3.73505   3.80800   3.84511   3.86767   4.03359
 Alpha virt. eigenvalues --    4.07810   4.09553   4.20751   4.21147   4.28929
 Alpha virt. eigenvalues --    4.32645   4.92273   5.22155   5.52082   5.91258
 Alpha virt. eigenvalues --   23.66982  23.91406  24.00305  24.02834  24.03232
 Alpha virt. eigenvalues --   24.13374  24.15235  24.24618  49.98360
          Condensed to atoms (all electrons):
               1          2          3          4          5          6
     1  O    8.178060   0.225760   0.186368   0.473311  -0.819169  -0.217138
     2  C    0.225760  12.095873  -0.316592  -2.327810  -0.816449   0.551742
     3  C    0.186368  -0.316592   6.224449   0.430764  -0.340261  -0.654833
     4  C    0.473311  -2.327810   0.430764  14.408885  -7.428805  -0.469848
     5  C   -0.819169  -0.816449  -0.340261  -7.428805  14.616856   0.052322
     6  C   -0.217138   0.551742  -0.654833  -0.469848   0.052322   6.896724
     7  C    0.099934  -2.370287  -0.268996  -1.120234   1.963513  -0.180018
     8  C   -0.044859  -0.386558   0.036235   1.078444  -0.221132   0.052605
     9  C    0.011211   0.313786   0.044898  -0.168371  -1.053583  -0.033991
    10  H   -0.048138   0.046040   0.395370  -0.011666   0.013201  -0.053357
    11  H   -0.057989  -0.171872   0.499109   0.172550  -0.057739  -0.151822
    12  H    0.000499  -0.197858   0.033786   0.691472  -0.179822   0.005588
    13  H   -0.014187  -0.148437  -0.005688  -0.149642   0.590795  -0.007188
    14  H    0.018051  -0.008247  -0.039222   0.007882  -0.001022   0.388180
    15  H   -0.007817   0.010942  -0.057333  -0.035169   0.024274   0.417082
    16  H   -0.006217  -0.008174   0.029336   0.025102  -0.013578   0.328254
    17  H   -0.002589   0.041461  -0.004494  -0.090245   0.094293   0.002398
    18  H   -0.000120   0.024549  -0.001513   0.092368  -0.119128   0.002285
    19  H   -0.000025   0.039829  -0.000181  -0.007417  -0.030236  -0.001005
               7          8          9         10         11         12
     1  O    0.099934  -0.044859   0.011211  -0.048138  -0.057989   0.000499
     2  C   -2.370287  -0.386558   0.313786   0.046040  -0.171872  -0.197858
     3  C   -0.268996   0.036235   0.044898   0.395370   0.499109   0.033786
     4  C   -1.120234   1.078444  -0.168371  -0.011666   0.172550   0.691472
     5  C    1.963513  -0.221132  -1.053583   0.013201  -0.057739  -0.179822
     6  C   -0.180018   0.052605  -0.033991  -0.053357  -0.151822   0.005588
     7  C    8.353082  -0.897599   0.352603  -0.023113   0.051444  -0.116936
     8  C   -0.897599   6.048624   0.212380   0.001442  -0.010680   0.053637
     9  C    0.352603   0.212380   6.514659   0.002675   0.009444   0.006695
    10  H   -0.023113   0.001442   0.002675   0.578260  -0.076270  -0.014670
    11  H    0.051444  -0.010680   0.009444  -0.076270   0.578388  -0.001038
    12  H   -0.116936   0.053637   0.006695  -0.014670  -0.001038   0.480038
    13  H    0.051356  -0.028841   0.006643  -0.000099  -0.000169  -0.002420
    14  H    0.001815  -0.001012   0.001184  -0.006023  -0.000070  -0.001856
    15  H   -0.004379   0.001878   0.000021   0.010806  -0.018823   0.000516
    16  H    0.002636  -0.000662  -0.001095  -0.018814   0.012395   0.001610
    17  H    0.351655  -0.010543  -0.090612  -0.000071  -0.000216  -0.009200
    18  H   -0.039698   0.412918  -0.076563  -0.000022  -0.000380   0.002601
    19  H   -0.058777  -0.051114   0.435455  -0.000000   0.000129   0.001223
              13         14         15         16         17         18
     1  O   -0.014187   0.018051  -0.007817  -0.006217  -0.002589  -0.000120
     2  C   -0.148437  -0.008247   0.010942  -0.008174   0.041461   0.024549
     3  C   -0.005688  -0.039222  -0.057333   0.029336  -0.004494  -0.001513
     4  C   -0.149642   0.007882  -0.035169   0.025102  -0.090245   0.092368
     5  C    0.590795  -0.001022   0.024274  -0.013578   0.094293  -0.119128
     6  C   -0.007188   0.388180   0.417082   0.328254   0.002398   0.002285
     7  C    0.051356   0.001815  -0.004379   0.002636   0.351655  -0.039698
     8  C   -0.028841  -0.001012   0.001878  -0.000662  -0.010543   0.412918
     9  C    0.006643   0.001184   0.000021  -0.001095  -0.090612  -0.076563
    10  H   -0.000099  -0.006023   0.010806  -0.018814  -0.000071  -0.000022
    11  H   -0.000169  -0.000070  -0.018823   0.012395  -0.000216  -0.000380
    12  H   -0.002420  -0.001856   0.000516   0.001610  -0.009200   0.002601
    13  H    0.420109   0.000441   0.000153  -0.000693   0.001803  -0.006222
    14  H    0.000441   0.520583  -0.033994  -0.038329  -0.000049  -0.000069
    15  H    0.000153  -0.033994   0.520024  -0.045793  -0.000011  -0.000049
    16  H   -0.000693  -0.038329  -0.045793   0.526155  -0.000001   0.000121
    17  H    0.001803  -0.000049  -0.000011  -0.000001   0.426585  -0.000087
    18  H   -0.006222  -0.000069  -0.000049   0.000121  -0.000087   0.427807
    19  H    0.000066   0.000014   0.000006   0.000017  -0.007509  -0.005116
              19
     1  O   -0.000025
     2  C    0.039829
     3  C   -0.000181
     4  C   -0.007417
     5  C   -0.030236
     6  C   -0.001005
     7  C   -0.058777
     8  C   -0.051114
     9  C    0.435455
    10  H   -0.000000
    11  H    0.000129
    12  H    0.001223
    13  H    0.000066
    14  H    0.000014
    15  H    0.000006
    16  H    0.000017
    17  H   -0.007509
    18  H   -0.005116
    19  H    0.433604
 Mulliken charges:
               1
     1  O    0.025053
     2  C   -0.597700
     3  C   -0.191204
     4  C    0.428428
     5  C   -0.274331
     6  C   -0.927981
     7  C   -0.148002
     8  C   -0.245164
     9  C   -0.487438
    10  H    0.204450
    11  H    0.223610
    12  H    0.246136
    13  H    0.292218
    14  H    0.191744
    15  H    0.217665
    16  H    0.207729
    17  H    0.297433
    18  H    0.286316
    19  H    0.251037
 Sum of Mulliken charges =  -0.00000
 Mulliken charges with hydrogens summed into heavy atoms:
               1
     1  O    0.025053
     2  C   -0.597700
     3  C    0.236856
     4  C    0.674564
     5  C    0.017887
     6  C   -0.310842
     7  C    0.149431
     8  C    0.041152
     9  C   -0.236402
 Electronic spatial extent (au):  <R**2>=           1443.6182
 Charge=             -0.0000 electrons
 Dipole moment (field-independent basis, Debye):
    X=             -0.6434    Y=              1.0495    Z=              0.6792  Tot=              1.4060
 Quadrupole moment (field-independent basis, Debye-Ang):
   XX=            -48.5813   YY=            -50.6639   ZZ=            -58.8960
   XY=             -2.6105   XZ=             -0.1735   YZ=             -0.7682
 Traceless Quadrupole moment (field-independent basis, Debye-Ang):
   XX=              4.1325   YY=              2.0498   ZZ=             -6.1823
   XY=             -2.6105   XZ=             -0.1735   YZ=             -0.7682
 Octapole moment (field-independent basis, Debye-Ang**2):
  XXX=             -7.7132  YYY=             -1.4458  ZZZ=             -1.6626  XYY=              3.2265
  XXY=              3.1123  XXZ=              5.2898  XZZ=            -10.3769  YZZ=             -0.2601
  YYZ=             -0.3340  XYZ=              0.4638
 Hexadecapole moment (field-independent basis, Debye-Ang**3):
 XXXX=          -1468.7356 YYYY=           -326.9876 ZZZZ=           -102.9239 XXXY=            -10.9187
 XXXZ=             15.3333 YYYX=             -0.8411 YYYZ=             -1.4514 ZZZX=             -0.1609
 ZZZY=              0.1250 XXYY=           -300.7738 XXZZ=           -291.0826 YYZZ=            -81.8575
 XXYZ=              0.5175 YYXZ=              2.2015 ZZXY=             -0.2957
 N-N= 4.203470796016D+02 E-N=-1.738172751607D+03  KE= 3.841891768680D+02
 R6APFD:  NTU= -4 IXU= 1 FactS= 1.050
 Calling FoFJK, ICntrl=      2127 FMM=F ISym2X=0 I1Cent= 0 IOpClX= 0 NMat=1 NMatS=1 NMatT=0.
 ***** Axes restored to original set *****
 -------------------------------------------------------------------
 Center     Atomic                   Forces (Hartrees/Bohr)
 Number     Number              X              Y              Z
 -------------------------------------------------------------------
      1        8           0.000881995   -0.007477613   -0.007582336
      2        6           0.004939921    0.010113445   -0.000159500
      3        6           0.005641707   -0.002853293    0.000143022
      4        6          -0.012368389    0.006832652   -0.000353737
      5        6          -0.003461089   -0.004010125    0.000402527
      6        6           0.001607861   -0.009077213    0.004161029
      7        6           0.000093177   -0.009209685   -0.000189099
      8        6           0.006382967    0.006642450    0.002366861
      9        6          -0.001075421    0.001530762   -0.000492747
     10        1          -0.007762557    0.001467009    0.001248845
     11        1          -0.001997079    0.004393449    0.001024143
     12        1           0.004018963   -0.001890189    0.000184730
     13        1           0.003675975    0.000279593    0.000371398
     14        1           0.000351911    0.001469594   -0.000014334
     15        1           0.001428729    0.000649518    0.001041699
     16        1          -0.000633877    0.000775258   -0.001579853
     17        1           0.000042398    0.001745948    0.000088621
     18        1          -0.000199810   -0.001676766   -0.000239581
     19        1          -0.001567382    0.000295204   -0.000421689
 -------------------------------------------------------------------
 Cartesian Forces:  Max     0.012368389 RMS     0.004039449

 GradGradGradGradGradGradGradGradGradGradGradGradGradGradGradGradGradGrad
 Berny optimization.
 FormGI is forming the generalized inverse of G from B-inverse, IUseBI=4.
 Internal  Forces:  Max     0.015282863 RMS     0.003148690
 Search for a local minimum.
 Step number   1 out of a maximum of   98
 All quantities printed in internal units (Hartrees-Bohrs-Radians)
 Mixed Optimization -- RFO/linear search
 Second derivative matrix not updated -- first step.
 ITU=  0
     Eigenvalues ---    0.00582   0.01336   0.02155   0.02155   0.02155
     Eigenvalues ---    0.02156   0.02157   0.02157   0.02158   0.02158
     Eigenvalues ---    0.02166   0.02211   0.05412   0.05645   0.05781
     Eigenvalues ---    0.06180   0.11068   0.13665   0.15993   0.16000
     Eigenvalues ---    0.16000   0.16000   0.16000   0.16000   0.16000
     Eigenvalues ---    0.16000   0.22000   0.22000   0.22075   0.23486
     Eigenvalues ---    0.25000   0.25000   0.30963   0.33987   0.34175
     Eigenvalues ---    0.34217   0.34235   0.34393   0.35213   0.35264
     Eigenvalues ---    0.35267   0.35274   0.35288   0.41437   0.42129
     Eigenvalues ---    0.42320   0.46463   0.46465   0.46477   0.46490
     Eigenvalues ---    0.52794
 RFO step:  Lambda=-4.57774700D-03 EMin= 5.82292036D-03
 Linear search not attempted -- first point.
 Iteration  1 RMS(Cart)=  0.07001041 RMS(Int)=  0.00135636
 Iteration  2 RMS(Cart)=  0.00338391 RMS(Int)=  0.00034835
 Iteration  3 RMS(Cart)=  0.00000431 RMS(Int)=  0.00034834
 Iteration  4 RMS(Cart)=  0.00000000 RMS(Int)=  0.00034834
 Variable       Old X    -DE/DX   Delta X   Delta X   Delta X     New X
                                 (Linear)    (Quad)   (Total)
    R1        2.57146   0.00110   0.00000   0.00207   0.00207   2.57354
    R2        2.69646  -0.00505   0.00000  -0.01206  -0.01206   2.68440
    R3        2.63609   0.00400   0.00000   0.00896   0.00898   2.64507
    R4        2.63611  -0.00221   0.00000  -0.00463  -0.00460   2.63151
    R5        2.86083   0.00427   0.00000   0.01359   0.01359   2.87441
    R6        2.07352   0.00225   0.00000   0.00653   0.00653   2.08005
    R7        2.07036   0.00341   0.00000   0.00983   0.00983   2.08020
    R8        2.63585  -0.00062   0.00000  -0.00098  -0.00099   2.63487
    R9        2.05210   0.00091   0.00000   0.00254   0.00254   2.05464
   R10        2.63613  -0.00324   0.00000  -0.00726  -0.00725   2.62888
   R11        2.05330   0.00100   0.00000   0.00279   0.00279   2.05609
   R12        2.06671   0.00122   0.00000   0.00351   0.00351   2.07023
   R13        2.06936   0.00106   0.00000   0.00305   0.00305   2.07240
   R14        2.06965   0.00068   0.00000   0.00197   0.00197   2.07162
   R15        2.63572  -0.00275   0.00000  -0.00595  -0.00598   2.62975
   R16        2.05244   0.00162   0.00000   0.00454   0.00454   2.05698
   R17        2.63613  -0.00087   0.00000  -0.00227  -0.00229   2.63384
   R18        2.05249   0.00144   0.00000   0.00404   0.00404   2.05652
   R19        2.05232   0.00164   0.00000   0.00459   0.00459   2.05691
    A1        2.04344   0.00524   0.00000   0.02058   0.02058   2.06402
    A2        2.09456   0.01528   0.00000   0.05959   0.05924   2.15380
    A3        2.09428  -0.01403   0.00000  -0.05553  -0.05577   2.03851
    A4        2.09434  -0.00126   0.00000  -0.00409  -0.00427   2.09007
    A5        1.90255  -0.00467   0.00000  -0.01959  -0.01924   1.88331
    A6        1.95209  -0.00433   0.00000  -0.04500  -0.04461   1.90748
    A7        1.90555   0.00155   0.00000   0.00271   0.00276   1.90831
    A8        1.87495   0.00905   0.00000   0.06485   0.06443   1.93938
    A9        1.91581   0.00196   0.00000   0.01886   0.01839   1.93420
   A10        1.91255  -0.00341   0.00000  -0.02021  -0.02161   1.89094
   A11        2.09451  -0.00107   0.00000  -0.00317  -0.00314   2.09137
   A12        2.13513  -0.00390   0.00000  -0.02524  -0.02527   2.10985
   A13        2.05316   0.00497   0.00000   0.02868   0.02864   2.08180
   A14        2.09428  -0.00021   0.00000  -0.00160  -0.00155   2.09273
   A15        2.10021  -0.00355   0.00000  -0.02140  -0.02143   2.07878
   A16        2.08870   0.00376   0.00000   0.02300   0.02298   2.11168
   A17        1.93711  -0.00155   0.00000  -0.01429  -0.01432   1.92278
   A18        1.93055   0.00114   0.00000   0.00982   0.00980   1.94036
   A19        1.93085  -0.00085   0.00000  -0.00326  -0.00334   1.92750
   A20        1.89877  -0.00026   0.00000  -0.00519  -0.00516   1.89361
   A21        1.89949   0.00057   0.00000  -0.00208  -0.00218   1.89731
   A22        1.86523   0.00105   0.00000   0.01591   0.01585   1.88108
   A23        2.09438   0.00204   0.00000   0.00952   0.00950   2.10388
   A24        2.09500  -0.00169   0.00000  -0.00887  -0.00886   2.08614
   A25        2.09379  -0.00034   0.00000  -0.00065  -0.00065   2.09314
   A26        2.09439   0.00328   0.00000   0.01287   0.01286   2.10726
   A27        2.09440  -0.00256   0.00000  -0.01200  -0.01201   2.08239
   A28        2.09439  -0.00072   0.00000  -0.00087  -0.00089   2.09350
   A29        2.09447  -0.00278   0.00000  -0.01354  -0.01357   2.08089
   A30        2.09444   0.00137   0.00000   0.00668   0.00669   2.10112
   A31        2.09428   0.00140   0.00000   0.00686   0.00687   2.10115
    D1       -0.52365   0.00018   0.00000   0.00633   0.00625  -0.51740
    D2        2.61854   0.00129   0.00000   0.04898   0.04906   2.66760
    D3       -2.62851  -0.00305   0.00000  -0.08539  -0.08552  -2.71403
    D4       -0.55776   0.00250   0.00000  -0.04520  -0.04534  -0.60310
    D5        1.56194  -0.00356   0.00000  -0.09819  -0.09792   1.46402
    D6       -3.14094   0.00061   0.00000   0.02361   0.02494  -3.11600
    D7       -0.03004   0.00097   0.00000   0.03519   0.03608   0.00604
    D8        0.00005  -0.00050   0.00000  -0.01906  -0.01909  -0.01904
    D9        3.11095  -0.00014   0.00000  -0.00748  -0.00796   3.10300
   D10        3.14109  -0.00077   0.00000  -0.03024  -0.02891   3.11219
   D11       -0.00056  -0.00078   0.00000  -0.03037  -0.02925  -0.02981
   D12        0.00010   0.00034   0.00000   0.01239   0.01224   0.01234
   D13       -3.14155   0.00032   0.00000   0.01225   0.01190  -3.12966
   D14       -3.13107  -0.00095   0.00000  -0.00505  -0.00512  -3.13620
   D15       -1.02172  -0.00155   0.00000  -0.01453  -0.01466  -1.03638
   D16        1.04164  -0.00006   0.00000   0.00932   0.00920   1.05085
   D17        1.03370   0.00158   0.00000   0.02192   0.02240   1.05610
   D18       -3.14013   0.00098   0.00000   0.01244   0.01286  -3.12727
   D19       -1.07678   0.00247   0.00000   0.03629   0.03673  -1.04005
   D20       -1.04469  -0.00072   0.00000  -0.00235  -0.00266  -1.04735
   D21        1.06467  -0.00132   0.00000  -0.01184  -0.01220   1.05247
   D22        3.12803   0.00017   0.00000   0.01202   0.01167   3.13969
   D23       -0.00015   0.00025   0.00000   0.00968   0.00988   0.00973
   D24        3.13462   0.00022   0.00000   0.00913   0.00913  -3.13944
   D25       -3.11247   0.00005   0.00000  -0.00046  -0.00015  -3.11262
   D26        0.02230   0.00003   0.00000  -0.00101  -0.00091   0.02140
   D27       -0.00015   0.00009   0.00000   0.00365   0.00394   0.00379
   D28       -3.14117  -0.00017   0.00000  -0.00625  -0.00620   3.13582
   D29        3.14150   0.00010   0.00000   0.00379   0.00429  -3.13739
   D30        0.00048  -0.00015   0.00000  -0.00611  -0.00585  -0.00536
   D31        0.00010   0.00018   0.00000   0.00636   0.00617   0.00627
   D32        3.13999   0.00005   0.00000   0.00190   0.00177  -3.14142
   D33       -3.13468   0.00021   0.00000   0.00694   0.00696  -3.12772
   D34        0.00521   0.00008   0.00000   0.00248   0.00256   0.00778
   D35        0.00005  -0.00035   0.00000  -0.01303  -0.01314  -0.01309
   D36       -3.13984  -0.00022   0.00000  -0.00857  -0.00875   3.13460
   D37        3.14107  -0.00009   0.00000  -0.00313  -0.00295   3.13813
   D38        0.00118   0.00004   0.00000   0.00133   0.00145   0.00263
         Item               Value     Threshold  Converged?
 Maximum Force            0.015283     0.000450     NO 
 RMS     Force            0.003149     0.000300     NO 
 Maximum Displacement     0.179453     0.001800     NO 
 RMS     Displacement     0.070476     0.001200     NO 
 Predicted change in Energy=-2.403171D-03
 GradGradGradGradGradGradGradGradGradGradGradGradGradGradGradGradGradGrad

                          Input orientation:                          
 ---------------------------------------------------------------------
 Center     Atomic      Atomic             Coordinates (Angstroms)
 Number     Number       Type             X           Y           Z
 ---------------------------------------------------------------------
      1          8           0        1.434030   -0.439308    0.331838
      2          6           0        0.112733   -0.165822    0.147355
      3          6           0        2.385851    0.529992   -0.083347
      4          6           0       -0.414137    1.130920    0.154735
      5          6           0       -0.739181   -1.257016   -0.003275
      6          6           0        3.698596   -0.189367   -0.353324
      7          6           0       -1.785054    1.323424   -0.011506
      8          6           0       -2.106309   -1.053093   -0.160296
      9          6           0       -2.637458    0.235432   -0.173484
     10          1           0        2.017773    1.036597   -0.988582
     11          1           0        2.508474    1.283490    0.709715
     12          1           0        0.229422    1.993976    0.306775
     13          1           0       -0.319666   -2.260898    0.003739
     14          1           0        4.463432    0.527328   -0.671964
     15          1           0        4.058780   -0.706503    0.544184
     16          1           0        3.568938   -0.939278   -1.142373
     17          1           0       -2.189291    2.334079   -0.006990
     18          1           0       -2.762586   -1.912537   -0.282675
     19          1           0       -3.707245    0.388686   -0.303225
 ---------------------------------------------------------------------
                    Distance matrix (angstroms):
                    1          2          3          4          5
     1  O    0.000000
     2  C    1.361857   0.000000
     3  C    1.420522   2.388398   0.000000
     4  C    2.431605   1.399709   2.873627   0.000000
     5  C    2.346017   1.392534   3.600783   2.415131   0.000000
     6  C    2.379112   3.620724   1.521073   4.349236   4.577802
     7  C    3.686138   2.417579   4.246309   1.394312   2.784348
     8  C    3.626697   2.409575   4.763569   2.780756   1.391143
     9  C    4.157841   2.797767   5.032746   2.419252   2.420708
    10  H    2.064596   2.522962   1.100718   2.688913   3.719178
    11  H    2.065248   2.855928   1.100792   2.978747   4.184470
    12  H    2.715249   2.168815   2.635456   1.087268   3.406358
    13  H    2.549763   2.144047   3.887991   3.396491   1.088035
    14  H    3.334558   4.481107   2.159356   4.983817   5.540597
    15  H    2.646846   4.002636   2.172880   4.851266   4.860371
    16  H    2.642177   3.769215   2.163327   4.672590   4.467482
    17  H    4.575471   3.401859   4.918586   2.150562   3.872828
    18  H    4.489947   3.391667   5.701937   3.869001   2.145213
    19  H    5.246102   3.886224   6.098699   3.406640   3.407009
                    6          7          8          9         10
     6  C    0.000000
     7  C    5.698753   0.000000
     8  C    5.871985   2.402744   0.000000
     9  C    6.352825   1.391603   1.393768   0.000000
    10  H    2.175248   3.936805   4.696905   4.793477   0.000000
    11  H    2.171578   4.353864   5.245261   5.325325   1.784925
    12  H    4.151853   2.146871   3.867612   3.397371   2.406807
    13  H    4.534883   3.872333   2.162821   3.411046   4.161946
    14  H    1.095517   6.333526   6.776506   7.124348   2.518105
    15  H    1.096669   6.211263   6.214881   6.800139   3.090870
    16  H    1.096256   5.921479   5.760717   6.390465   2.516713
    17  H    6.415211   1.088508   3.391654   2.152415   4.510695
    18  H    6.687390   3.391246   1.088265   2.154379   5.661053
    19  H    7.428535   2.157233   2.159201   1.088468   5.802183
                   11         12         13         14         15
    11  H    0.000000
    12  H    2.420997   0.000000
    13  H    4.589059   4.300846   0.000000
    14  H    2.510514   4.586483   5.577527   0.000000
    15  H    2.528027   4.691794   4.677501   1.779072   0.000000
    16  H    3.081479   4.675080   4.263976   1.781106   1.771611
    17  H    4.866867   2.462578   4.960788   6.925696   6.970461
    18  H    6.243677   4.955846   2.484199   7.636742   6.976335
    19  H    6.360965   4.294928   4.311637   8.180168   7.888516
                   16         17         18         19
    16  H    0.000000
    17  H    6.720205   0.000000
    18  H    6.463320   4.293997   0.000000
    19  H    7.443823   2.485255   2.487655   0.000000
 Stoichiometry    C8H10O
 Framework group  C1[X(C8H10O)]
 Deg. of freedom    51
 Full point group                 C1      NOp   1
 Largest Abelian subgroup         C1      NOp   1
 Largest concise Abelian subgroup C1      NOp   1
                         Standard orientation:                         
 ---------------------------------------------------------------------
 Center     Atomic      Atomic             Coordinates (Angstroms)
 Number     Number       Type             X           Y           Z
 ---------------------------------------------------------------------
      1          8           0       -1.276459   -0.437265   -0.392255
      2          6           0        0.045387   -0.183866   -0.184487
      3          6           0       -2.223027    0.527683    0.044513
      4          6           0        0.585373    1.106828   -0.143130
      5          6           0        0.884502   -1.288297   -0.060911
      6          6           0       -3.545906   -0.186435    0.276227
      7          6           0        1.956219    1.279378    0.044260
      8          6           0        2.251778   -1.103990    0.117602
      9          6           0        2.795730    0.177767    0.179287
     10          1           0       -1.859999    1.000204    0.969993
     11          1           0       -2.329159    1.308231   -0.724399
     12          1           0       -0.047699    1.981124   -0.273424
     13          1           0        0.454977   -2.286954   -0.105773
     14          1           0       -4.306982    0.527296    0.610156
     15          1           0       -3.901233   -0.669819   -0.641795
     16          1           0       -3.432658   -0.963338    1.041324
     17          1           0        2.370665    2.285345    0.077657
     18          1           0        2.897934   -1.973829    0.218511
     19          1           0        3.865491    0.315447    0.325632
 ---------------------------------------------------------------------
 Rotational constants (GHZ):           4.6951806           0.9315106           0.7975451
 Standard basis: 6-311++G(d,p) (5D, 7F)
 There are   277 symmetry adapted cartesian basis functions of A   symmetry.
 There are   268 symmetry adapted basis functions of A   symmetry.
   268 basis functions,   414 primitive gaussians,   277 cartesian basis functions
    33 alpha electrons       33 beta electrons
       nuclear repulsion energy       419.6101396173 Hartrees.
 NAtoms=   19 NActive=   19 NUniq=   19 SFac= 1.00D+00 NAtFMM=   60 NAOKFM=F Big=F
 Integral buffers will be    131072 words long.
 Raffenetti 2 integral format.
 Two-electron integral symmetry is turned on.
 R6APFD:  NTU= -4 IXU= 1 FactS= 1.050
 Nuclear repulsion after empirical dispersion term =      419.6009281215 Hartrees.
 One-electron integrals computed using PRISM.
 NBasis=   268 RedAO= T EigKep=  4.16D-06  NBF=   268
 NBsUse=   267 1.00D-06 EigRej=  8.52D-07 NBFU=   267
 Initial guess from the checkpoint file:  "PNEE0145.chk"
 B after Tr=     0.000000   -0.000000   -0.000000
         Rot=    0.999943   -0.008390    0.000799    0.006496 Ang=  -1.22 deg.
 ExpMin= 3.60D-02 ExpMax= 8.59D+03 ExpMxC= 1.30D+03 IAcc=3 IRadAn=         5 AccDes= 0.00D+00
 Harris functional with IExCor= 1009 and IRadAn=       5 diagonalized for initial guess.
 HarFok:  IExCor= 1009 AccDes= 0.00D+00 IRadAn=         5 IDoV= 1 UseB2=F ITyADJ=14
 ICtDFT=  3500011 ScaDFX=  1.000000  1.000000  1.000000  1.000000
 FoFCou: FMM=F IPFlag=           0 FMFlag=      100000 FMFlg1=           0
         NFxFlg=           0 DoJE=T BraDBF=F KetDBF=T FulRan=T
         wScrn=  0.000000 ICntrl=       500 IOpCl=  0 I1Cent=   200000004 NGrid=           0
         NMat0=    1 NMatS0=      1 NMatT0=    0 NMatD0=    1 NMtDS0=    0 NMtDT0=    0
 Petite list used in FoFCou.
 Requested convergence on RMS density matrix=1.00D-08 within  32 cycles.
 Requested convergence on MAX density matrix=1.00D-06.
 Requested convergence on             energy=1.00D-06.
 No special actions if energy rises.
 SCF Done:  E(RM08HX) =  -386.082405847     A.U. after   12 cycles
            NFock= 12  Conv=0.79D-08     -V/T= 2.0050
 QCSCF skips out because SCF is already converged.
 R6APFD:  NTU= -4 IXU= 1 FactS= 1.050
 Calling FoFJK, ICntrl=      2127 FMM=F ISym2X=0 I1Cent= 0 IOpClX= 0 NMat=1 NMatS=1 NMatT=0.
 ***** Axes restored to original set *****
 -------------------------------------------------------------------
 Center     Atomic                   Forces (Hartrees/Bohr)
 Number     Number              X              Y              Z
 -------------------------------------------------------------------
      1        8          -0.001654887   -0.004249352   -0.004339805
      2        6           0.002923042    0.004696925    0.003957384
      3        6           0.000492432   -0.000651160    0.002068654
      4        6          -0.000070318    0.001353551   -0.000839301
      5        6          -0.004115551   -0.002820419   -0.000335206
      6        6          -0.001524249   -0.000386466    0.000489764
      7        6           0.000089277   -0.002326841   -0.000351595
      8        6           0.001731892   -0.000587518   -0.000186223
      9        6          -0.000546554    0.001071165    0.000279574
     10        1           0.000051568    0.000385532   -0.000291691
     11        1          -0.000047681    0.001483415   -0.000298637
     12        1           0.001716416   -0.000394533   -0.000392755
     13        1           0.001084142    0.000591327    0.000077403
     14        1           0.000503086    0.000050293   -0.000045061
     15        1          -0.001002228    0.001121215    0.000164983
     16        1          -0.000320617    0.000769859   -0.000103948
     17        1           0.000470003    0.000385465    0.000078870
     18        1          -0.000174190   -0.000430505    0.000023480
     19        1           0.000394417   -0.000061951    0.000044109
 -------------------------------------------------------------------
 Cartesian Forces:  Max     0.004696925 RMS     0.001583197

 GradGradGradGradGradGradGradGradGradGradGradGradGradGradGradGradGradGrad
 Berny optimization.
 Using GEDIIS/GDIIS optimizer.
 FormGI is forming the generalized inverse of G from B-inverse, IUseBI=4.
 Internal  Forces:  Max     0.005117958 RMS     0.001083221
 Search for a local minimum.
 Step number   2 out of a maximum of   98
 All quantities printed in internal units (Hartrees-Bohrs-Radians)
 Mixed Optimization -- RFO/linear search
 Update second derivatives using D2CorX and points    1    2
 DE= -2.45D-03 DEPred=-2.40D-03 R= 1.02D+00
 TightC=F SS=  1.41D+00  RLast= 2.19D-01 DXNew= 5.0454D-01 6.5713D-01
 Trust test= 1.02D+00 RLast= 2.19D-01 DXMaxT set to 5.05D-01
 ITU=  1  0
 Use linear search instead of GDIIS.
     Eigenvalues ---    0.00582   0.01215   0.02059   0.02155   0.02155
     Eigenvalues ---    0.02156   0.02156   0.02157   0.02157   0.02158
     Eigenvalues ---    0.02161   0.02293   0.05418   0.05693   0.05783
     Eigenvalues ---    0.05926   0.11144   0.13304   0.15101   0.15999
     Eigenvalues ---    0.15999   0.16000   0.16000   0.16000   0.16000
     Eigenvalues ---    0.16193   0.21453   0.21991   0.22075   0.23387
     Eigenvalues ---    0.24212   0.28439   0.32638   0.33937   0.34102
     Eigenvalues ---    0.34222   0.34382   0.34415   0.35215   0.35229
     Eigenvalues ---    0.35266   0.35279   0.35415   0.41457   0.42225
     Eigenvalues ---    0.42468   0.46318   0.46467   0.46489   0.47595
     Eigenvalues ---    0.53705
 RFO step:  Lambda=-1.15269050D-03 EMin= 5.82084010D-03
 Quartic linear search produced a step of  0.05573.
 Iteration  1 RMS(Cart)=  0.05325254 RMS(Int)=  0.00129523
 Iteration  2 RMS(Cart)=  0.00371053 RMS(Int)=  0.00003917
 Iteration  3 RMS(Cart)=  0.00001145 RMS(Int)=  0.00003893
 Iteration  4 RMS(Cart)=  0.00000000 RMS(Int)=  0.00003893
 Variable       Old X    -DE/DX   Delta X   Delta X   Delta X     New X
                                 (Linear)    (Quad)   (Total)
    R1        2.57354  -0.00342   0.00012  -0.00641  -0.00629   2.56725
    R2        2.68440   0.00008  -0.00067  -0.00197  -0.00264   2.68176
    R3        2.64507  -0.00178   0.00050  -0.00245  -0.00194   2.64312
    R4        2.63151   0.00249  -0.00026   0.00484   0.00459   2.63610
    R5        2.87441  -0.00285   0.00076  -0.00717  -0.00642   2.86799
    R6        2.08005   0.00040   0.00036   0.00240   0.00276   2.08282
    R7        2.08020   0.00079   0.00055   0.00419   0.00474   2.08493
    R8        2.63487  -0.00055  -0.00005  -0.00153  -0.00159   2.63328
    R9        2.05464   0.00065   0.00014   0.00237   0.00251   2.05715
   R10        2.62888  -0.00163  -0.00040  -0.00486  -0.00527   2.62361
   R11        2.05609  -0.00013   0.00016   0.00012   0.00028   2.05637
   R12        2.07023   0.00040   0.00020   0.00184   0.00203   2.07226
   R13        2.07240  -0.00072   0.00017  -0.00166  -0.00149   2.07091
   R14        2.07162  -0.00041   0.00011  -0.00091  -0.00080   2.07083
   R15        2.62975   0.00027  -0.00033  -0.00053  -0.00087   2.62888
   R16        2.05698   0.00018   0.00025   0.00136   0.00161   2.05859
   R17        2.63384   0.00102  -0.00013   0.00194   0.00180   2.63564
   R18        2.05652   0.00044   0.00022   0.00203   0.00226   2.05878
   R19        2.05691  -0.00040   0.00026  -0.00037  -0.00011   2.05680
    A1        2.06402  -0.00512   0.00115  -0.01768  -0.01654   2.04749
    A2        2.15380  -0.00136   0.00330   0.00511   0.00834   2.16214
    A3        2.03851   0.00004  -0.00311  -0.00956  -0.01274   2.02577
    A4        2.09007   0.00134  -0.00024   0.00522   0.00493   2.09500
    A5        1.88331  -0.00117  -0.00107  -0.00772  -0.00874   1.87457
    A6        1.90748   0.00033  -0.00249  -0.00563  -0.00804   1.89944
    A7        1.90831   0.00082   0.00015   0.00738   0.00755   1.91586
    A8        1.93938   0.00059   0.00359   0.01405   0.01760   1.95698
    A9        1.93420   0.00006   0.00103   0.00250   0.00349   1.93769
   A10        1.89094  -0.00060  -0.00120  -0.01056  -0.01187   1.87907
   A11        2.09137  -0.00128  -0.00018  -0.00685  -0.00704   2.08433
   A12        2.10985  -0.00097  -0.00141  -0.01175  -0.01320   2.09666
   A13        2.08180   0.00226   0.00160   0.01882   0.02038   2.10218
   A14        2.09273  -0.00042  -0.00009  -0.00176  -0.00185   2.09088
   A15        2.07878  -0.00105  -0.00119  -0.01125  -0.01245   2.06633
   A16        2.11168   0.00147   0.00128   0.01302   0.01430   2.12598
   A17        1.92278   0.00077  -0.00080   0.00229   0.00148   1.92426
   A18        1.94036  -0.00178   0.00055  -0.01049  -0.00995   1.93041
   A19        1.92750  -0.00045  -0.00019  -0.00269  -0.00288   1.92463
   A20        1.89361   0.00034  -0.00029  -0.00030  -0.00060   1.89300
   A21        1.89731  -0.00004  -0.00012   0.00053   0.00040   1.89771
   A22        1.88108   0.00121   0.00088   0.01105   0.01193   1.89301
   A23        2.10388   0.00082   0.00053   0.00533   0.00587   2.10975
   A24        2.08614  -0.00101  -0.00049  -0.00731  -0.00780   2.07833
   A25        2.09314   0.00019  -0.00004   0.00198   0.00195   2.09509
   A26        2.10726  -0.00069   0.00072  -0.00051   0.00020   2.10745
   A27        2.08239   0.00021  -0.00067  -0.00158  -0.00224   2.08015
   A28        2.09350   0.00048  -0.00005   0.00209   0.00205   2.09555
   A29        2.08089   0.00023  -0.00076  -0.00121  -0.00198   2.07891
   A30        2.10112  -0.00011   0.00037   0.00065   0.00102   2.10214
   A31        2.10115  -0.00012   0.00038   0.00060   0.00098   2.10214
    D1       -0.51740   0.00263   0.00035   0.11870   0.11901  -0.39839
    D2        2.66760   0.00199   0.00273   0.09786   0.10063   2.76823
    D3       -2.71403  -0.00115  -0.00477  -0.08651  -0.09131  -2.80534
    D4       -0.60310  -0.00094  -0.00253  -0.07745  -0.07996  -0.68307
    D5        1.46402  -0.00099  -0.00546  -0.08922  -0.09466   1.36936
    D6       -3.11600  -0.00030   0.00139  -0.00941  -0.00803  -3.12403
    D7        0.00604  -0.00005   0.00201   0.00334   0.00521   0.01125
    D8       -0.01904   0.00031  -0.00106   0.01167   0.01063  -0.00841
    D9        3.10300   0.00057  -0.00044   0.02442   0.02387   3.12687
   D10        3.11219   0.00023  -0.00161   0.00719   0.00551   3.11770
   D11       -0.02981   0.00026  -0.00163   0.00840   0.00672  -0.02309
   D12        0.01234  -0.00031   0.00068  -0.01287  -0.01222   0.00011
   D13       -3.12966  -0.00028   0.00066  -0.01165  -0.01102  -3.14068
   D14       -3.13620   0.00007  -0.00029   0.00501   0.00470  -3.13149
   D15       -1.03638  -0.00016  -0.00082  -0.00069  -0.00152  -1.03790
   D16        1.05085  -0.00009   0.00051   0.00460   0.00509   1.05594
   D17        1.05610   0.00005   0.00125   0.00843   0.00973   1.06583
   D18       -3.12727  -0.00018   0.00072   0.00274   0.00351  -3.12376
   D19       -1.04005  -0.00011   0.00205   0.00802   0.01012  -1.02993
   D20       -1.04735   0.00037  -0.00015   0.01069   0.01051  -1.03684
   D21        1.05247   0.00015  -0.00068   0.00500   0.00429   1.05676
   D22        3.13969   0.00022   0.00065   0.01028   0.01090  -3.13259
   D23        0.00973  -0.00006   0.00055  -0.00116  -0.00059   0.00914
   D24       -3.13944  -0.00002   0.00051   0.00041   0.00095  -3.13848
   D25       -3.11262  -0.00028  -0.00001  -0.01336  -0.01350  -3.12612
   D26        0.02140  -0.00024  -0.00005  -0.01179  -0.01195   0.00945
   D27        0.00379   0.00007   0.00022   0.00367   0.00387   0.00766
   D28        3.13582   0.00012  -0.00035   0.00447   0.00412   3.13994
   D29       -3.13739   0.00004   0.00024   0.00244   0.00263  -3.13476
   D30       -0.00536   0.00009  -0.00033   0.00324   0.00288  -0.00249
   D31        0.00627  -0.00019   0.00034  -0.00810  -0.00778  -0.00151
   D32       -3.14142  -0.00000   0.00010   0.00005   0.00014  -3.14128
   D33       -3.12772  -0.00023   0.00039  -0.00964  -0.00929  -3.13701
   D34        0.00778  -0.00004   0.00014  -0.00149  -0.00138   0.00640
   D35       -0.01309   0.00019  -0.00073   0.00686   0.00612  -0.00697
   D36        3.13460   0.00000  -0.00049  -0.00129  -0.00179   3.13280
   D37        3.13813   0.00014  -0.00016   0.00608   0.00590  -3.13916
   D38        0.00263  -0.00005   0.00008  -0.00207  -0.00202   0.00061
         Item               Value     Threshold  Converged?
 Maximum Force            0.005118     0.000450     NO 
 RMS     Force            0.001083     0.000300     NO 
 Maximum Displacement     0.171252     0.001800     NO 
 RMS     Displacement     0.053150     0.001200     NO 
 Predicted change in Energy=-6.202480D-04
 GradGradGradGradGradGradGradGradGradGradGradGradGradGradGradGradGradGrad

                          Input orientation:                          
 ---------------------------------------------------------------------
 Center     Atomic      Atomic             Coordinates (Angstroms)
 Number     Number       Type             X           Y           Z
 ---------------------------------------------------------------------
      1          8           0        1.430172   -0.491726    0.241215
      2          6           0        0.113077   -0.188197    0.104361
      3          6           0        2.369341    0.517828   -0.094455
      4          6           0       -0.391102    1.116441    0.109851
      5          6           0       -0.756428   -1.272249   -0.016931
      6          6           0        3.704372   -0.164392   -0.330279
      7          6           0       -1.763738    1.320416   -0.016765
      8          6           0       -2.122291   -1.051636   -0.132158
      9          6           0       -2.637319    0.244501   -0.137352
     10          1           0        2.012348    1.052277   -0.989844
     11          1           0        2.439109    1.250746    0.727271
     12          1           0        0.284696    1.962966    0.218208
     13          1           0       -0.335454   -2.275705   -0.017266
     14          1           0        4.470451    0.578043   -0.584108
     15          1           0        4.026686   -0.702254    0.568481
     16          1           0        3.623562   -0.882436   -1.154131
     17          1           0       -2.150062    2.338971   -0.014738
     18          1           0       -2.792109   -1.905508   -0.227910
     19          1           0       -3.708212    0.412012   -0.236151
 ---------------------------------------------------------------------
                    Distance matrix (angstroms):
                    1          2          3          4          5
     1  O    0.000000
     2  C    1.358528   0.000000
     3  C    1.419124   2.372494   0.000000
     4  C    2.433207   1.398681   2.831982   0.000000
     5  C    2.336038   1.394961   3.602890   2.419789   0.000000
     6  C    2.367644   3.617579   1.517678   4.313601   4.606981
     7  C    3.681233   2.411021   4.211001   1.393473   2.781472
     8  C    3.615646   2.407974   4.758088   2.784985   1.388355
     9  C    4.150882   2.794697   5.014299   2.422164   2.419253
    10  H    2.058733   2.518589   1.102180   2.643864   3.743808
    11  H    2.071331   2.805173   1.103299   2.899885   4.138936
    12  H    2.708903   2.160999   2.555764   1.088598   3.406734
    13  H    2.523258   2.138612   3.889178   3.394983   1.088183
    14  H    3.326990   4.477480   2.158252   4.940258   5.573646
    15  H    2.625512   3.974418   2.162147   4.799463   4.852399
    16  H    2.628803   3.793320   2.157944   4.659473   4.541970
    17  H    4.571262   3.394490   4.873184   2.145704   3.870805
    18  H    4.477334   3.391116   5.703590   3.874416   2.142319
    19  H    5.239047   3.883098   6.080126   3.408689   3.405558
                    6          7          8          9         10
     6  C    0.000000
     7  C    5.674784   0.000000
     8  C    5.897157   2.401772   0.000000
     9  C    6.357787   1.391142   1.394723   0.000000
    10  H    2.185923   3.908658   4.717765   4.795690   0.000000
    11  H    2.172997   4.268766   5.181308   5.246924   1.780449
    12  H    4.064564   2.159667   3.873521   3.408476   2.296416
    13  H    4.569006   3.869377   2.168946   3.415324   4.187308
    14  H    1.096593   6.303818   6.806200   7.129603   2.536098
    15  H    1.095879   6.161390   6.198619   6.767829   3.092623
    16  H    1.095834   5.930360   5.838483   6.442240   2.523117
    17  H    6.375014   1.089360   3.392753   2.153893   4.464535
    18  H    6.726532   3.392450   1.089460   2.157476   5.693140
    19  H    7.435558   2.157384   2.160608   1.088409   5.805411
                   11         12         13         14         15
    11  H    0.000000
    12  H    2.325489   0.000000
    13  H    4.548449   4.290263   0.000000
    14  H    2.509700   4.481325   5.617999   0.000000
    15  H    2.521870   4.607448   4.674090   1.778918   0.000000
    16  H    3.081083   4.596483   4.348272   1.781894   1.778305
    17  H    4.774443   2.474609   4.958633   6.874318   6.909517
    18  H    6.183846   4.962946   2.493305   7.683729   6.969794
    19  H    6.278632   4.307576   4.318244   8.187746   7.856060
                   16         17         18         19
    16  H    0.000000
    17  H    6.708981   0.000000
    18  H    6.562423   4.298055   0.000000
    19  H    7.501547   2.487976   2.492030   0.000000
 Stoichiometry    C8H10O
 Framework group  C1[X(C8H10O)]
 Deg. of freedom    51
 Full point group                 C1      NOp   1
 Largest Abelian subgroup         C1      NOp   1
 Largest concise Abelian subgroup C1      NOp   1
                         Standard orientation:                         
 ---------------------------------------------------------------------
 Center     Atomic      Atomic             Coordinates (Angstroms)
 Number     Number       Type             X           Y           Z
 ---------------------------------------------------------------------
      1          8           0       -1.271429   -0.491566   -0.315325
      2          6           0        0.045474   -0.200774   -0.151607
      3          6           0       -2.208640    0.516988    0.028721
      4          6           0        0.558700    1.099959   -0.119948
      5          6           0        0.905481   -1.293570   -0.041604
      6          6           0       -3.551834   -0.160637    0.228714
      7          6           0        1.930605    1.291051    0.032133
      8          6           0        2.270904   -1.085539    0.099366
      9          6           0        2.794754    0.206375    0.141678
     10          1           0       -1.861776    1.028565    0.941286
     11          1           0       -2.260676    1.268680   -0.777208
     12          1           0       -0.109472    1.953595   -0.219436
     13          1           0        0.477614   -2.293693   -0.070346
     14          1           0       -4.316569    0.581454    0.487552
     15          1           0       -3.863995   -0.675803   -0.686769
     16          1           0       -3.488687   -0.897588    1.037273
     17          1           0        2.323958    2.306559    0.058998
     18          1           0        2.933240   -1.946195    0.185997
     19          1           0        3.865135    0.363833    0.260533
 ---------------------------------------------------------------------
 Rotational constants (GHZ):           4.7514103           0.9357516           0.7978573
 Standard basis: 6-311++G(d,p) (5D, 7F)
 There are   277 symmetry adapted cartesian basis functions of A   symmetry.
 There are   268 symmetry adapted basis functions of A   symmetry.
   268 basis functions,   414 primitive gaussians,   277 cartesian basis functions
    33 alpha electrons       33 beta electrons
       nuclear repulsion energy       420.2921121718 Hartrees.
 NAtoms=   19 NActive=   19 NUniq=   19 SFac= 1.00D+00 NAtFMM=   60 NAOKFM=F Big=F
 Integral buffers will be    131072 words long.
 Raffenetti 2 integral format.
 Two-electron integral symmetry is turned on.
 R6APFD:  NTU= -4 IXU= 1 FactS= 1.050
 Nuclear repulsion after empirical dispersion term =      420.2829356769 Hartrees.
 One-electron integrals computed using PRISM.
 NBasis=   268 RedAO= T EigKep=  4.05D-06  NBF=   268
 NBsUse=   267 1.00D-06 EigRej=  8.12D-07 NBFU=   267
 Initial guess from the checkpoint file:  "PNEE0145.chk"
 B after Tr=    -0.000000   -0.000000    0.000000
         Rot=    0.999975    0.006686    0.000395   -0.002361 Ang=   0.81 deg.
 ExpMin= 3.60D-02 ExpMax= 8.59D+03 ExpMxC= 1.30D+03 IAcc=3 IRadAn=         5 AccDes= 0.00D+00
 Harris functional with IExCor= 1009 and IRadAn=       5 diagonalized for initial guess.
 HarFok:  IExCor= 1009 AccDes= 0.00D+00 IRadAn=         5 IDoV= 1 UseB2=F ITyADJ=14
 ICtDFT=  3500011 ScaDFX=  1.000000  1.000000  1.000000  1.000000
 FoFCou: FMM=F IPFlag=           0 FMFlag=      100000 FMFlg1=           0
         NFxFlg=           0 DoJE=T BraDBF=F KetDBF=T FulRan=T
         wScrn=  0.000000 ICntrl=       500 IOpCl=  0 I1Cent=   200000004 NGrid=           0
         NMat0=    1 NMatS0=      1 NMatT0=    0 NMatD0=    1 NMtDS0=    0 NMtDT0=    0
 Petite list used in FoFCou.
 Requested convergence on RMS density matrix=1.00D-08 within  32 cycles.
 Requested convergence on MAX density matrix=1.00D-06.
 Requested convergence on             energy=1.00D-06.
 No special actions if energy rises.
 SCF Done:  E(RM08HX) =  -386.083220530     A.U. after   13 cycles
            NFock= 13  Conv=0.74D-08     -V/T= 2.0050
 QCSCF skips out because SCF is already converged.
 R6APFD:  NTU= -4 IXU= 1 FactS= 1.050
 Calling FoFJK, ICntrl=      2127 FMM=F ISym2X=0 I1Cent= 0 IOpClX= 0 NMat=1 NMatS=1 NMatT=0.
 ***** Axes restored to original set *****
 -------------------------------------------------------------------
 Center     Atomic                   Forces (Hartrees/Bohr)
 Number     Number              X              Y              Z
 -------------------------------------------------------------------
      1        8          -0.000383691   -0.000508660   -0.003543117
      2        6           0.000687198    0.000736523    0.002799369
      3        6          -0.000074244    0.000255656    0.002414032
      4        6           0.002620808   -0.000471023   -0.000785971
      5        6          -0.002104119   -0.000694150    0.000663376
      6        6          -0.000411768    0.001738014   -0.000511960
      7        6          -0.001301592    0.000528826    0.000052472
      8        6           0.000121392   -0.002254378   -0.000372212
      9        6           0.000305545    0.001301747   -0.000043499
     10        1           0.002092749   -0.000483084   -0.000738778
     11        1          -0.000020295   -0.000237665   -0.000315676
     12        1          -0.001572548    0.000084552    0.000008294
     13        1          -0.000179901    0.000178461    0.000026842
     14        1           0.000067836   -0.000515941    0.000013712
     15        1          -0.000485096    0.000105415   -0.000152394
     16        1           0.000159996    0.000117216    0.000312092
     17        1           0.000021278   -0.000259433   -0.000002474
     18        1          -0.000034378    0.000384277    0.000033068
     19        1           0.000490829   -0.000006353    0.000142823
 -------------------------------------------------------------------
 Cartesian Forces:  Max     0.003543117 RMS     0.001044935

 GradGradGradGradGradGradGradGradGradGradGradGradGradGradGradGradGradGrad
 Berny optimization.
 Using GEDIIS/GDIIS optimizer.
 FormGI is forming the generalized inverse of G from B-inverse, IUseBI=4.
 Internal  Forces:  Max     0.003035896 RMS     0.000706402
 Search for a local minimum.
 Step number   3 out of a maximum of   98
 All quantities printed in internal units (Hartrees-Bohrs-Radians)
 Mixed Optimization -- En-DIIS/RFO-DIIS
 Update second derivatives using D2CorX and points    1    2    3
 DE= -8.15D-04 DEPred=-6.20D-04 R= 1.31D+00
 TightC=F SS=  1.41D+00  RLast= 2.30D-01 DXNew= 8.4853D-01 6.9045D-01
 Trust test= 1.31D+00 RLast= 2.30D-01 DXMaxT set to 6.90D-01
 ITU=  1  1  0
 Use linear search instead of GDIIS.
     Eigenvalues ---    0.00515   0.00593   0.01894   0.02155   0.02155
     Eigenvalues ---    0.02156   0.02156   0.02157   0.02157   0.02158
     Eigenvalues ---    0.02185   0.02286   0.05457   0.05772   0.05789
     Eigenvalues ---    0.05880   0.11938   0.14169   0.15592   0.15999
     Eigenvalues ---    0.16000   0.16000   0.16000   0.16000   0.16079
     Eigenvalues ---    0.17631   0.21681   0.21973   0.22463   0.23540
     Eigenvalues ---    0.26375   0.30967   0.32870   0.34022   0.34214
     Eigenvalues ---    0.34287   0.34367   0.34534   0.35220   0.35254
     Eigenvalues ---    0.35266   0.35379   0.36581   0.41843   0.42332
     Eigenvalues ---    0.43041   0.46150   0.46483   0.47092   0.47527
     Eigenvalues ---    0.55256
 RFO step:  Lambda=-9.05578521D-04 EMin= 5.15153869D-03
 Quartic linear search produced a step of  0.57423.
 Iteration  1 RMS(Cart)=  0.09681285 RMS(Int)=  0.00406473
 Iteration  2 RMS(Cart)=  0.01256316 RMS(Int)=  0.00005399
 Iteration  3 RMS(Cart)=  0.00009565 RMS(Int)=  0.00003744
 Iteration  4 RMS(Cart)=  0.00000000 RMS(Int)=  0.00003744
 Variable       Old X    -DE/DX   Delta X   Delta X   Delta X     New X
                                 (Linear)    (Quad)   (Total)
    R1        2.56725   0.00056  -0.00361   0.00102  -0.00259   2.56465
    R2        2.68176   0.00133  -0.00152   0.00154   0.00002   2.68177
    R3        2.64312   0.00002  -0.00112   0.00188   0.00077   2.64389
    R4        2.63610   0.00225   0.00263   0.00682   0.00946   2.64555
    R5        2.86799  -0.00118  -0.00368  -0.00345  -0.00713   2.86086
    R6        2.08282  -0.00031   0.00159   0.00056   0.00215   2.08497
    R7        2.08493  -0.00039   0.00272   0.00126   0.00398   2.08891
    R8        2.63328   0.00077  -0.00091   0.00185   0.00095   2.63423
    R9        2.05715  -0.00091   0.00144  -0.00276  -0.00131   2.05584
   R10        2.62361  -0.00042  -0.00303  -0.00366  -0.00669   2.61692
   R11        2.05637  -0.00023   0.00016  -0.00029  -0.00013   2.05624
   R12        2.07226  -0.00031   0.00117  -0.00018   0.00099   2.07325
   R13        2.07091  -0.00032  -0.00086  -0.00089  -0.00175   2.06916
   R14        2.07083  -0.00032  -0.00046  -0.00104  -0.00150   2.06933
   R15        2.62888  -0.00057  -0.00050  -0.00341  -0.00391   2.62496
   R16        2.05859  -0.00025   0.00092   0.00024   0.00116   2.05976
   R17        2.63564   0.00087   0.00104   0.00235   0.00338   2.63903
   R18        2.05878  -0.00028   0.00130   0.00009   0.00139   2.06017
   R19        2.05680  -0.00050  -0.00006  -0.00102  -0.00108   2.05571
    A1        2.04749   0.00304  -0.00950   0.01956   0.01006   2.05755
    A2        2.16214   0.00003   0.00479   0.01446   0.01922   2.18137
    A3        2.02577   0.00051  -0.00731  -0.01166  -0.01901   2.00676
    A4        2.09500  -0.00055   0.00283  -0.00290  -0.00009   2.09491
    A5        1.87457   0.00026  -0.00502  -0.00365  -0.00865   1.86592
    A6        1.89944   0.00127  -0.00462   0.00784   0.00327   1.90271
    A7        1.91586  -0.00015   0.00433   0.00107   0.00541   1.92127
[...]
 0595,0.02305062,-0.00992087,-0.00108822,0.08007657,-0.30342052,-0.0063
 8339,-0.00056888,0.00058597,0.00005467,0.03453904,0.70931036,0.0018233
 4,-0.00200067,0.00924400,0.00406171,-0.00375613,-0.06666156,-0.0001574
 9,-0.00029950,-0.00165020,-0.01963515,0.00779482,0.12361005,-0.0642022
 3,-0.03876515,0.00188021,-0.17887952,-0.04992034,0.00304290,0.00105298
 ,0.00585231,0.00013465,0.06500320,-0.04118423,-0.00262594,0.72384196,-
 0.00414865,0.01636337,0.00027995,-0.12764732,-0.25522440,0.00159354,0.
 00443332,-0.00026082,-0.00019268,0.00708624,-0.04558126,-0.00104564,-0
 .04216653,0.72178600,0.00240496,0.00147595,0.00719518,0.00186351,-0.00
 108677,-0.06910993,0.00011363,-0.00024174,0.00237956,-0.00189230,0.000
 61909,0.00711846,-0.02129906,0.01047848,0.12667678,-0.04132056,0.00368
 523,0.00155592,-0.00043281,-0.00322411,-0.00002518,-0.18371137,0.05721
 629,0.00435955,0.00004330,-0.00054564,0.00001376,-0.00090573,0.0004514
 9,0.00004454,0.51440216,-0.03914941,0.01044067,0.00148368,-0.00130161,
 -0.00482144,-0.00002967,0.07348799,-0.11222315,-0.00298628,0.00005870,
 -0.00101588,-0.00002861,-0.00200996,0.00053426,0.00007492,0.03508416,0
 .56615359,0.00090387,-0.00000188,0.00202374,0.00000328,0.00003463,0.00
 023546,0.00460952,-0.00242959,-0.08340807,0.00002244,-0.00000691,0.000
 68612,0.00000683,-0.00001021,0.00018083,0.00262019,-0.00134126,0.57410
 029,0.00134631,-0.00636641,0.00009058,-0.00186050,0.10060120,0.0016230
 7,-0.00102208,-0.00133120,0.00004065,-0.33126337,-0.00358515,0.0093602
 9,-0.06709235,-0.02328388,0.00187782,0.00000763,-0.00023372,0.00000109
 ,0.67468434,-0.00140637,-0.00749967,-0.00017170,0.04128843,0.02344661,
 -0.00107999,-0.00200682,-0.00120060,0.00004033,0.06921035,-0.13139295,
 -0.00350595,-0.02680833,-0.01451127,0.00074335,0.00033891,0.00044060,-
 0.00000683,-0.01257599,0.73934850,0.00016799,0.00000157,0.00682231,0.0
 0072262,-0.00313019,0.00077135,0.00002962,0.00001696,0.00071463,0.0104
 7088,-0.00098987,-0.05873025,0.00182252,0.00062107,-0.00253548,0.00000
 957,0.00001248,0.00013486,-0.01875348,0.00962053,0.13740000,0.00846703
 ,0.00022551,-0.00012184,-0.04707619,-0.07204852,0.00055472,-0.00128025
 ,0.00004926,0.00011010,-0.04625915,0.03294613,0.00198925,-0.35989901,0
 .07556015,0.01159073,-0.00004829,0.00029451,0.00000341,0.06785828,0.00
 778196,-0.00201163,0.71297315,-0.00594625,-0.00864851,0.00000172,-0.01
 113151,0.06573157,0.00137085,-0.00127734,0.00007659,0.00001681,0.04040
 049,-0.03195181,-0.00183159,0.00324434,-0.13877707,-0.00134472,-0.0002
 2544,-0.00068980,-0.00000151,-0.05100954,-0.05804423,0.00078597,0.0340
 7819,0.70459609,-0.00021715,-0.00021178,0.00479414,0.00148420,0.003473
 99,0.00074460,0.00009069,-0.00002934,0.00190772,0.00209824,-0.00157306
 ,-0.00332692,0.01049161,-0.00384145,-0.05791941,-0.00000444,-0.0000197
 3,-0.00007635,-0.00290474,-0.00124551,0.00625231,-0.01936006,0.0074168
 4,0.13806612,-0.00702375,0.00193222,0.00023136,0.00250818,-0.01739675,
 -0.00053057,0.00162551,0.00180554,-0.00002931,-0.04379155,-0.01278342,
 0.00156927,-0.00742259,0.03593478,0.00103030,0.00002508,0.00002592,-0.
 00000004,-0.22139083,-0.14653193,0.00326056,-0.15383624,0.10373956,0.0
 0475258,0.74875079,0.00596708,0.00419520,-0.00012309,-0.01920992,-0.08
 454091,-0.00054357,-0.00030726,0.00031613,0.00001467,-0.06992654,0.053
 43735,0.00311772,0.09087526,0.02025351,-0.00293094,-0.00001930,0.00035
 132,0.00000565,-0.07264819,-0.25858522,-0.00049053,0.02980977,-0.30507
 103,-0.00471187,-0.00586290,0.66323882,0.00029319,0.00001489,-0.001165
 97,-0.00055774,-0.00060629,-0.00520151,-0.00006080,-0.00005735,-0.0000
 0113,0.00070206,0.00114223,0.00737151,0.00186643,-0.00103279,0.0065603
 0,-0.00000053,0.00000434,0.00001500,0.00438562,0.00206316,-0.06226536,
 0.00362865,-0.00726502,-0.06191234,-0.02150498,0.00833510,0.12843174,-
 0.00528347,-0.02293453,0.02081819,0.00566622,-0.00167377,0.00115530,-0
 .05699455,0.02719746,-0.03903232,0.00049406,0.00099612,0.00010158,-0.0
 0164164,-0.00054933,-0.00040410,-0.00485053,0.01744769,-0.02533440,-0.
 00109649,-0.00028438,-0.00054339,0.00096441,-0.00071710,-0.00030110,0.
 00017361,0.00110598,0.00001918,0.06658205,-0.01063964,-0.02644012,0.02
 109447,0.00531593,-0.00080940,-0.00010639,0.02459359,-0.12261025,0.105
 56825,-0.00039961,0.00050095,-0.00038859,-0.00113536,-0.00034926,-0.00
 022460,0.00359825,-0.00629551,0.01043946,-0.00006713,0.00007125,-0.000
 01898,0.00038443,-0.00007024,-0.00025117,-0.00031549,0.00027492,0.0001
 2547,-0.02214538,0.14444283,0.00595799,0.00188108,0.00635577,-0.002154
 30,0.00065165,0.00048552,-0.03529913,0.10921075,-0.21466679,0.00033736
 ,0.00112008,-0.00009066,0.00059215,-0.00001470,-0.00020775,0.00016641,
 -0.00248415,0.00308372,-0.00013064,-0.00050315,0.00002653,-0.00024178,
 -0.00000106,-0.00000741,0.00007327,-0.00008703,-0.00005772,0.03609356,
 -0.12277201,0.22412349,-0.00711016,-0.02241473,-0.02059211,0.00571344,
 -0.00167478,-0.00156758,-0.05257375,0.01865180,0.02824026,0.00046045,0
 .00092031,-0.00011189,-0.00164937,-0.00056019,0.00048744,-0.00305528,0
 .01677932,0.02627431,-0.00104437,-0.00026638,0.00060977,0.00099641,-0.
 00072276,0.00021008,0.00016671,0.00110951,-0.00000100,0.00137481,-0.00
 154156,-0.00539418,0.06231945,-0.01193584,-0.02574364,-0.02130534,0.00
 524754,-0.00078904,-0.00029700,0.01642382,-0.11617814,-0.10395648,-0.0
 0036028,0.00052289,0.00043382,-0.00110061,-0.00035782,0.00029701,0.002
 84980,-0.00602402,-0.01091397,-0.00007059,0.00005542,0.00002524,0.0003
 9424,-0.00007819,0.00022275,-0.00032039,0.00027653,-0.00009359,-0.0007
 2289,0.01078937,0.01431961,-0.01275175,0.13706685,-0.00538802,-0.00130
 260,0.00750153,0.00195035,-0.00057360,0.00041610,0.02443455,-0.1077609
 4,-0.22553183,-0.00038784,-0.00116929,-0.00008129,-0.00052529,0.000048
 67,-0.00019114,0.00035123,0.00104636,0.00101404,0.00020366,0.00052433,
 -0.00000887,0.00018392,0.00004938,-0.00003196,-0.00009829,0.00002003,-
 0.00005274,0.00382227,-0.01328803,-0.02075240,-0.02512931,0.12129242,0
 .23576020,-0.00088653,-0.00209689,-0.00009973,0.01138919,0.00763810,-0
 .00016560,-0.00274683,0.00248180,0.00013299,-0.16358202,-0.13771052,0.
 00241220,-0.00002121,0.00256916,0.00024804,0.00003060,0.00046226,-0.00
 001454,-0.01387812,-0.02574282,0.00014692,-0.00050602,0.00108989,-0.00
 000295,-0.00500334,0.00241223,0.00045243,-0.00169326,0.00052124,0.0004
 5717,-0.00184296,0.00056050,-0.00033791,0.17847146,-0.00017074,0.00164
 008,0.00007507,-0.02187770,-0.01528638,0.00047079,-0.00054374,-0.00103
 135,0.00000310,-0.13657547,-0.23390554,0.00160254,0.00324479,-0.004617
 35,-0.00027549,0.00033930,0.00066924,0.00000750,0.00451599,0.00752569,
 -0.00006833,0.00152678,-0.00031961,-0.00004094,0.00178767,0.00185505,-
 0.00014238,0.00051375,0.00022083,-0.00079196,0.00062142,0.00018613,0.0
 0076755,0.14808168,0.24300610,-0.00006898,0.00014041,-0.00285167,-0.00
 061752,-0.00054215,0.00319817,0.00008500,-0.00010204,-0.00003285,0.002
 42595,0.00163763,-0.03219262,0.00025896,-0.00025099,0.00604147,-0.0000
 1588,0.00000341,-0.00057854,0.00061208,0.00097539,0.00182368,0.0000040
 2,-0.00002618,-0.00107957,0.00044406,-0.00016236,0.00704811,0.00180699
 ,-0.00039814,-0.00037785,-0.00168680,0.00037495,-0.00019185,-0.0030638
 0,-0.00172725,0.02359949,0.00120058,0.00091580,-0.00014325,0.01070452,
 -0.01876134,-0.00048529,-0.00018820,-0.00009492,-0.00001598,-0.0021752
 5,-0.00312189,0.00021778,-0.09431863,0.09603568,0.00350848,0.00003199,
 0.00005455,0.00000124,-0.00117840,-0.00068842,-0.00001748,-0.00471937,
 0.02906261,0.00068361,-0.00548041,-0.00010745,0.00046036,0.00007388,0.
 00009251,-0.00006447,0.00007090,0.00008024,0.00006186,0.00034868,-0.00
 108171,-0.00003328,0.09536549,0.00116397,0.00148591,0.00003292,0.01328
 254,-0.01824412,-0.00080901,-0.00046742,0.00003612,0.00002597,-0.00399
 500,-0.00264828,0.00001425,0.09371045,-0.30196652,-0.00727804,0.000011
 22,-0.00002471,-0.00000138,-0.00129148,0.00053296,0.00007355,-0.000544
 02,0.00025659,-0.00001267,0.00051564,0.00238100,-0.00010091,0.00010626
 ,0.00012280,-0.00008200,0.00011507,0.00012496,0.00007816,0.00063907,-0
 .00096341,-0.00003467,-0.10353595,0.31846320,-0.00013860,0.00004148,-0
 .00333895,-0.00000223,0.00029730,0.00487834,-0.00002173,0.00001302,-0.
 00061131,0.00020521,-0.00001562,0.00550323,0.00347394,-0.00735816,-0.0
 3506072,0.00000053,-0.00000281,0.00004239,-0.00002572,0.00005287,-0.00
 138061,0.00023463,-0.00103474,0.00230443,0.00046962,-0.00008068,0.0078
 8223,0.00010646,0.00014938,-0.00000337,-0.00010827,-0.00015153,-0.0000
 0241,-0.00000729,0.00002510,-0.00013393,-0.00401386,0.00802377,0.02477
 699,-0.00878820,0.00352716,0.00038322,0.00088183,-0.00161521,-0.000034
 83,-0.01458278,-0.02461926,0.00003828,-0.00022508,-0.00007268,0.000003
 81,-0.00068508,0.00021607,0.00002845,-0.18171804,-0.13162075,0.0026298
 8,0.00003132,0.00008526,-0.00000080,0.00006316,-0.00020636,-0.00000706
 ,-0.00008644,0.00007088,0.00000402,0.00046060,0.00024959,-0.00082099,0
 .00051750,0.00022525,0.00078708,0.00009604,0.00006016,-0.00000081,0.00
 003167,0.00000117,-0.00000076,0.19785074,0.00407613,-0.00045033,-0.000
 15937,0.00086473,0.00103922,-0.00002310,0.00934002,0.01093071,-0.00011
 495,-0.00013750,0.00011187,0.00000775,0.00025478,-0.00019752,-0.000012
 48,-0.13476810,-0.18113466,0.00250228,0.00001040,-0.00001517,-0.000000
 14,0.00003748,0.00009505,0.00000095,-0.00002583,-0.00000170,0.00000087
 ,-0.00079676,0.00036197,0.00032076,-0.00081552,0.00037262,-0.00024967,
 -0.00003867,-0.00007140,-0.00000046,0.00001914,0.00001838,-0.00000054,
 0.14577817,0.19257369,0.00039695,-0.00013994,0.00075011,0.00000278,0.0
 0006336,0.00056969,0.00056958,0.00105693,-0.00232011,0.00000295,0.0000
 0543,-0.00008080,0.00002926,-0.00001116,0.00004069,0.00257881,0.002391
 27,-0.04515948,-0.00000193,-0.00000276,-0.00003054,-0.00000335,0.00000
 943,-0.00004970,0.00000257,-0.00000251,-0.00000081,-0.00003187,-0.0000
 2544,-0.00008562,-0.00003447,0.00002421,-0.00014793,-0.00000231,-0.000
 00392,0.00004586,-0.00000052,0.00000012,0.00000856,-0.00299717,-0.0026
 8724,0.04426760,0.00341015,-0.00038658,0.00046152,-0.00061316,0.000064
 57,0.00021310,-0.00601902,0.02003797,-0.02744689,-0.00004438,0.0001884
 8,0.00013052,0.00025707,0.00010890,0.00002173,-0.05079656,0.02007429,-
 0.02813062,0.00011299,-0.00012924,0.00004238,-0.00016343,0.00006992,0.
 00002424,-0.00001975,-0.00013467,-0.00002341,-0.00542528,0.00215291,0.
 00078447,0.00119637,-0.00057946,0.00033420,-0.00000554,-0.00019557,-0.
 00011707,-0.00003326,-0.00003575,-0.00002273,0.00383377,-0.01229068,0.
 01945742,0.05513907,-0.00056400,0.00107537,-0.00091638,-0.00032945,0.0
 0006174,-0.00011924,0.00145955,-0.01034420,0.01276343,-0.00002261,-0.0
 0019311,-0.00009479,0.00008573,0.00002925,0.00003333,0.02221908,-0.137
 12184,0.12432887,0.00000349,0.00006629,0.00000985,-0.00000288,0.000028
 20,0.00000062,0.00003805,-0.00001820,0.00000744,0.00274471,-0.00008602
 ,-0.00080983,-0.00028280,-0.00015182,-0.00010543,0.00001926,0.00010133
 ,0.00005553,-0.00000720,0.00000029,-0.00000569,0.00452904,-0.01205196,
 0.01688694,-0.02711112,0.14701576,-0.00062338,-0.00040341,0.00008748,-
 0.00004030,-0.00025919,0.00003100,0.00066776,-0.00165159,0.00220359,0.
 00011493,0.00001266,-0.00004404,-0.00005159,0.00007458,0.00002663,-0.0
 2997040,0.12549449,-0.22062899,0.00002791,-0.00003925,-0.00001203,-0.0
 0002262,-0.00002803,-0.00001101,-0.00000575,-0.00001325,0.00000756,0.0
 0090413,-0.00013089,0.00137540,-0.00064272,-0.00018125,0.00078838,0.00
 002451,-0.00003009,0.00001173,-0.00002354,-0.00001853,-0.00001262,0.00
 049152,-0.00190792,0.00063410,0.03238907,-0.13703556,0.23471950,0.0034
 0065,-0.00033847,-0.00070206,-0.00062193,0.00008766,-0.00016613,-0.004
 11801,0.01922013,0.02848505,-0.00006097,0.00019065,-0.00012329,0.00025
 772,0.00010430,-0.00003468,-0.04759049,0.01077726,0.01640437,0.0001072
 9,-0.00012459,-0.00005434,-0.00016260,0.00007213,-0.00001150,-0.000017
 77,-0.00013396,0.00002104,0.00121641,-0.00055518,-0.00038030,-0.005502
 94,0.00217097,-0.00023962,0.00000101,-0.00019631,0.00011169,-0.0000299
 6,-0.00003504,0.00002283,0.00244041,-0.01152267,-0.01997335,-0.0008410
 2,-0.00280717,-0.00323629,0.05150901,-0.00051029,0.00103192,0.00098154
 ,-0.00032202,0.00004949,0.00014165,0.00058238,-0.00996817,-0.01318529,
 -0.00001254,-0.00019512,0.00009114,0.00008193,0.00003281,-0.00003894,0
 .01293590,-0.12932486,-0.12260481,0.00000398,0.00006514,-0.00000775,-0
 .00000381,0.00002747,0.00000081,0.00003717,-0.00001855,-0.00001081,-0.
 00029572,-0.00016053,0.00009625,0.00281494,-0.00010782,0.00056894,0.00
 001603,0.00010183,-0.00005385,-0.00000752,-0.00000051,0.00000662,0.003
 35949,-0.01157601,-0.01756344,-0.00181631,0.01158802,0.01612303,-0.016
 89206,0.13845429,0.00038013,0.00045828,0.00013533,0.00007569,0.0002539
 4,0.00005170,-0.00021607,-0.00005280,-0.00007646,-0.00011386,-0.000030
 77,-0.00002506,0.00003811,-0.00008166,0.00002204,0.01831240,-0.1236282
 4,-0.23163369,-0.00003610,0.00005026,-0.00000538,0.00003307,0.00002426
 ,-0.00001081,0.00000875,0.00002180,0.00000577,0.00060418,0.00019259,0.
 00078104,-0.00034230,-0.00006424,0.00147689,-0.00002316,0.00004652,0.0
 0000493,0.00002450,0.00002138,-0.00001513,-0.00050871,0.00232390,0.001
 55310,0.00189847,-0.01499532,-0.01917706,-0.02013837,0.13545309,0.2469
 1347,-0.00107738,0.00173948,0.00006428,-0.00533452,-0.00023590,0.00043
 605,0.00052642,0.00043994,-0.00001587,-0.00595303,0.02949141,0.0007727
 1,-0.00122086,-0.00061503,-0.00001624,-0.00003787,-0.00008879,0.000001
 37,-0.09026059,0.08840182,0.00316136,-0.00188827,-0.00378397,0.0002632
 4,0.01139922,-0.01919556,-0.00054990,-0.00001439,-0.00005986,0.0000490
 0,-0.00002203,-0.00005775,-0.00004911,0.00059034,-0.00027081,-0.000161
 64,0.00006686,0.00005149,-0.00002597,-0.00004743,-0.00000403,0.0000015
 7,0.00001718,0.00000596,0.00000540,0.00001658,0.00000641,-0.00000639,0
 .09234515,0.00042527,-0.00021747,-0.00001819,0.00014084,0.00231017,-0.
 00008265,-0.00021844,-0.00023640,0.00000591,-0.00090109,-0.00117425,-0
 .00003839,-0.00075629,0.00070283,0.00005840,0.00000642,0.00001882,-0.0
 0000056,0.08861061,-0.30395888,-0.00711627,-0.00434628,-0.00238117,0.0
 0000068,0.01168826,-0.01676903,-0.00071875,-0.00000896,0.00003467,0.00
 000045,-0.00000705,0.00003437,0.00000095,0.00036635,0.00070393,0.00005
 863,0.00007674,-0.00007344,0.00000705,0.00002152,0.00000296,-0.0000006
 9,-0.00000037,-0.00000827,-0.00000066,-0.00000026,-0.00000841,0.000000
 43,-0.09521627,0.32145552,0.00004377,-0.00006370,0.00000513,0.00044244
 ,-0.00006690,0.00739816,-0.00002579,-0.00001692,-0.00012371,0.00031277
 ,-0.00108964,0.00337568,-0.00002041,0.00005284,-0.00141676,0.00000286,
 0.00000270,0.00004224,0.00316038,-0.00710989,-0.03787852,0.00025546,-0
 .00001988,0.00739906,-0.00007773,0.00034950,0.00394514,0.00006226,-0.0
 0000684,0.00000209,-0.00006091,0.00001181,0.00001004,-0.00015156,0.000
 08143,-0.00396889,-0.00002562,0.00000775,-0.00070698,0.00000194,0.0000
 0019,-0.00000055,0.00000154,-0.00000405,-0.00000088,-0.00000276,0.0000
 0337,-0.00000020,-0.00374671,0.00779090,0.02606198,-0.00151482,-0.0016
 3555,0.00003369,-0.00400521,0.00247760,0.00046943,-0.00001217,0.000524
 04,-0.00000201,-0.00075057,0.00098720,-0.00000064,-0.01399084,-0.02572
 409,0.00021608,-0.00008952,-0.00016348,-0.00000047,0.00063176,0.002795
 26,0.00025761,-0.16905128,-0.13528666,0.00244690,0.01068981,0.00966810
 ,-0.00009639,-0.00000615,-0.00005249,0.00002557,-0.00001164,-0.0000543
 4,-0.00002591,0.00001389,-0.00008638,-0.00002986,0.00062530,0.00044213
 ,-0.00016895,-0.00006531,0.00002552,0.00000254,0.00000563,0.00000921,-
 0.00000717,0.00000667,0.00000892,0.00000707,0.00036249,0.00056442,-0.0
 0000315,0.17664312,-0.00018891,0.00029472,0.00000834,0.00224325,0.0012
 8984,-0.00018659,0.00019249,0.00006548,-0.00000116,0.00111871,0.000153
 76,-0.00001812,0.00513953,0.00732725,-0.00012036,0.00001436,0.00001304
 ,0.00000016,0.00336401,-0.00476755,-0.00029220,-0.13579651,-0.22523819
 ,0.00186496,-0.02102274,-0.01576540,0.00043145,-0.00001487,-0.00002079
 ,-0.00000287,-0.00001305,-0.00001973,0.00000295,-0.00009275,-0.0000222
 7,0.00001514,-0.00034168,0.00058073,0.00008815,0.00000123,-0.00000561,
 -0.00000007,0.00000069,0.00000463,-0.00000010,0.00000044,0.00000467,0.
 00000020,-0.00103371,-0.00101684,0.00001972,0.14596627,0.23654621,0.00
 005551,0.00005848,0.00016963,0.00046541,-0.00019690,0.00848500,-0.0000
 0700,-0.00001270,-0.00029626,0.00000024,-0.00001293,-0.00120268,0.0006
 8626,0.00094571,0.00354419,0.00000224,0.00000630,-0.00003028,0.0002661
 2,-0.00027235,0.00684943,0.00243759,0.00184870,-0.03886369,-0.00056087
 ,-0.00062934,0.00366512,0.00005348,0.00003917,0.00000728,-0.00005262,-
 0.00003633,0.00001171,-0.00002987,0.00001515,-0.00081123,-0.00018087,0
 .00006090,-0.00445372,0.00000213,-0.00000090,-0.00000394,-0.00000850,0
 .00000090,0.00000099,0.00000814,-0.00000139,-0.00000012,-0.00002737,-0
 .00003500,0.00001861,-0.00297243,-0.00185796,0.02657888,0.00014738,-0.
 00004479,-0.00002915,0.00055286,-0.00033186,-0.00004138,-0.00001665,-0
 .00003587,-0.00000927,-0.00025794,-0.00381412,0.00019821,0.00151612,0.
 00219493,0.00021067,0.00001629,0.00002107,-0.00000175,-0.01469282,0.00
 666327,0.00067933,-0.00643235,-0.00145019,0.00026362,-0.33126624,0.046
 52695,0.01096175,-0.00000031,0.00000325,-0.00005117,-0.00000355,0.0000
 0155,0.00005217,-0.00077537,0.00030688,0.00004690,-0.00039641,-0.00013
 434,0.00002287,-0.00000870,-0.00000662,0.00000054,-0.00001083,0.000013
 16,-0.00000147,-0.00001003,0.00001312,0.00000260,0.00053212,-0.0004454
 1,-0.00016878,0.00051882,0.00046323,-0.00013758,0.35058759,0.00014465,
 0.00039982,0.00001141,-0.00047009,-0.00189496,-0.00000498,-0.00008996,
 -0.00007766,0.00000597,-0.00302990,-0.00322357,-0.00005407,0.00135769,
 -0.00518601,-0.00022644,0.00003219,0.00005433,0.00000037,-0.02464639,0
 .00842308,0.00094704,0.02965361,0.00045830,-0.00104406,0.04675464,-0.0
 6580977,-0.00209707,0.00003171,0.00002255,-0.00005189,0.00003822,0.000
 02110,0.00004981,-0.00117592,0.00020710,0.00003699,0.00141081,-0.00008
 191,-0.00005497,0.00000926,-0.00000211,-0.00000050,-0.00001796,0.00000
 453,-0.00000504,-0.00001784,0.00000434,0.00000641,0.00042518,0.0005809
 1,0.00005760,-0.00046567,0.00057605,0.00008049,-0.04994421,0.06552386,
 -0.00002644,0.00001795,-0.00067942,-0.00004305,-0.00000969,-0.00049682
 ,-0.00001012,0.00000405,-0.00026770,0.00021063,-0.00002692,0.00717703,
 0.00019845,-0.00025539,0.00665507,-0.00000160,0.00000079,-0.00004327,0
 .00020333,-0.00013284,0.00205191,0.00073572,0.00002877,0.00182078,0.01
 096521,-0.00208929,-0.03427489,0.00009961,0.00000227,0.00000872,-0.000
 09770,-0.00000209,0.00001353,0.00002448,-0.00001439,0.00044558,0.00004
 631,-0.00000155,0.00032360,0.00000078,0.00000004,0.00000976,-0.0000094
 3,-0.00000063,0.00000027,0.00000960,-0.00000014,-0.00000036,-0.0001557
 8,0.00008776,-0.00416163,-0.00015189,0.00004837,-0.00366892,-0.0119981
 1,0.00234292,0.02508678\\0.00002622,0.00000887,0.00000253,-0.00003530,
 -0.00001343,-0.00001408,-0.00002824,-0.00000334,0.00000621,0.00000739,
 -0.00001778,-0.00000438,0.00005668,0.00002688,0.00000387,0.00000419,-0
 .00000117,0.00000229,0.00000176,0.00001150,0.00000241,-0.00002114,0.00
 000921,0.00000303,-0.00000162,-0.00000524,-0.00000115,0.00000155,-0.00
 000449,-0.00000844,0.00000233,-0.00000071,-0.00000085,-0.00000608,0.00
 000815,0.00000879,-0.00001924,-0.00000641,0.00000199,-0.00000034,0.000
 00152,0.00000518,0.00000689,-0.00000763,-0.00000539,0.00000045,-0.0000
 0458,-0.00000026,0.00000596,0.00000081,-0.00000075,0.00000053,0.000001
 44,0.00000027,-0.00000202,-0.00000359,-0.00000128\\\@


 IF NO USE IS MADE OF THE LABOR OF PAST AGES,
 THE WORLD MUST REMAIN ALWAYS IN THE INFANCY OF KNOWLEDGE.

                          -- CICERO
 Job cpu time:       0 days  2 hours  1 minutes 19.7 seconds.
 Elapsed time:       0 days  0 hours  7 minutes 37.6 seconds.
 File lengths (MBytes):  RWF=    126 Int=      0 D2E=      0 Chk=      7 Scr=      1
 Normal termination of Gaussian 16 at Sun Sep 21 10:02:52 2025.
