 Entering Gaussian System, Link 0=g16
 Input=PNTE0146.gjf
 Output=PNTE0146.log
 Initial command:
 /usr/local/g16/l1.exe "/dados_01/scratch/Gau-2188845.inp" -scrdir="/dados_01/scratch/"
 Entering Link 1 = /usr/local/g16/l1.exe PID=   2188846.
  
 Copyright (c) 1988-2017, Gaussian, Inc.  All Rights Reserved.
  
 This is part of the Gaussian(R) 16 program.  It is based on
 the Gaussian(R) 09 system (copyright 2009, Gaussian, Inc.),
 the Gaussian(R) 03 system (copyright 2003, Gaussian, Inc.),
 the Gaussian(R) 98 system (copyright 1998, Gaussian, Inc.),
 the Gaussian(R) 94 system (copyright 1995, Gaussian, Inc.),
 the Gaussian 92(TM) system (copyright 1992, Gaussian, Inc.),
 the Gaussian 90(TM) system (copyright 1990, Gaussian, Inc.),
 the Gaussian 88(TM) system (copyright 1988, Gaussian, Inc.),
 the Gaussian 86(TM) system (copyright 1986, Carnegie Mellon
 University), and the Gaussian 82(TM) system (copyright 1983,
 Carnegie Mellon University). Gaussian is a federally registered
 trademark of Gaussian, Inc.
  
 This software contains proprietary and confidential information,
 including trade secrets, belonging to Gaussian, Inc.
  
 This software is provided under written license and may be
 used, copied, transmitted, or stored only in accord with that
 written license.
  
 The following legend is applicable only to US Government
 contracts under FAR:
  
                    RESTRICTED RIGHTS LEGEND
  
 Use, reproduction and disclosure by the US Government is
 subject to restrictions as set forth in subparagraphs (a)
 and (c) of the Commercial Computer Software - Restricted
 Rights clause in FAR 52.227-19.
  
 Gaussian, Inc.
 340 Quinnipiac St., Bldg. 40, Wallingford CT 06492
  
  
 ---------------------------------------------------------------
 Warning -- This program may not be used in any manner that
 competes with the business of Gaussian, Inc. or will provide
 assistance to any competitor of Gaussian, Inc.  The licensee
 of this program is prohibited from giving any competitor of
 Gaussian, Inc. access to this program.  By using this program,
 the user acknowledges that Gaussian, Inc. is engaged in the
 business of creating and licensing software in the field of
 computational chemistry and represents and warrants to the
 licensee that it is not a competitor of Gaussian, Inc. and that
 it will not use this program in any manner prohibited above.
 ---------------------------------------------------------------
  

 Cite this work as:
 Gaussian 16, Revision B.01,
 M. J. Frisch, G. W. Trucks, H. B. Schlegel, G. E. Scuseria, 
 M. A. Robb, J. R. Cheeseman, G. Scalmani, V. Barone, 
 G. A. Petersson, H. Nakatsuji, X. Li, M. Caricato, A. V. Marenich, 
 J. Bloino, B. G. Janesko, R. Gomperts, B. Mennucci, H. P. Hratchian, 
 J. V. Ortiz, A. F. Izmaylov, J. L. Sonnenberg, D. Williams-Young, 
 F. Ding, F. Lipparini, F. Egidi, J. Goings, B. Peng, A. Petrone, 
 T. Henderson, D. Ranasinghe, V. G. Zakrzewski, J. Gao, N. Rega, 
 G. Zheng, W. Liang, M. Hada, M. Ehara, K. Toyota, R. Fukuda, 
 J. Hasegawa, M. Ishida, T. Nakajima, Y. Honda, O. Kitao, H. Nakai, 
 T. Vreven, K. Throssell, J. A. Montgomery, Jr., J. E. Peralta, 
 F. Ogliaro, M. J. Bearpark, J. J. Heyd, E. N. Brothers, K. N. Kudin, 
 V. N. Staroverov, T. A. Keith, R. Kobayashi, J. Normand, 
 K. Raghavachari, A. P. Rendell, J. C. Burant, S. S. Iyengar, 
 J. Tomasi, M. Cossi, J. M. Millam, M. Klene, C. Adamo, R. Cammi, 
 J. W. Ochterski, R. L. Martin, K. Morokuma, O. Farkas, 
 J. B. Foresman, and D. J. Fox, Gaussian, Inc., Wallingford CT, 2016.
 
 ******************************************
 Gaussian 16:  ES64L-G16RevB.01 20-Dec-2017
                21-Sep-2025 
 ******************************************
 %nprocs=16
 Will use up to   16 processors via shared memory.
 %mem=40GB
 %chk=PNTE0146.chk
 ----------------------------------------------------------------------
 # opt freq=noraman M08HX/6-311++G** scf=xqc Empiricaldispersion=pfd In
 t(Grid=ultraFine)
 ----------------------------------------------------------------------
 1/18=20,19=15,26=4,38=1/1,3;
 2/9=110,12=2,17=6,18=5,40=1/2;
 3/5=4,6=6,7=1111,11=2,25=1,30=1,71=1,74=-74,75=-5,124=11/1,2,3;
 4//1;
 5/5=2,8=3,13=1,38=5/2,8;
 6/7=2,8=2,9=2,10=2,28=1/1;
 7//1,2,3,16;
 1/18=20,19=15,26=4/3(2);
 2/9=110/2;
 99//99;
 2/9=110/2;
 3/5=4,6=6,7=1111,11=2,25=1,30=1,71=1,74=-74,75=-5,124=11/1,2,3;
 4/5=5,16=3,69=1/1;
 5/5=2,8=3,13=1,38=5/2,8;
 7//1,2,3,16;
 1/18=20,19=15,26=4/3(-5);
 2/9=110/2;
 6/7=2,8=2,9=2,10=2,19=2,28=1/1;
 99/9=1/99;
 --------
 PNTE0146
 --------
 Symbolic Z-matrix:
 Charge =  0 Multiplicity = 1
 C                    -0.7199   -0.393    -0.0006 
 C                     0.7199   -0.393    -0.0004 
 C                    -1.4123    0.8461   -0.0003 
 C                     1.4123    0.8461   -0.0002 
 C                    -0.6957    2.0453   -0.0001 
 C                     0.6954    2.0453   -0.0001 
 C                    -1.5154   -1.5662   -0.0003 
 C                     1.5154   -1.5661   -0.0003 
 C                    -2.8173    0.8802    0.0004 
 C                     2.8173    0.8802    0.0003 
 C                    -2.9121   -1.5182    0.0002 
 C                     2.9122   -1.5181    0.0003 
 C                    -3.5631   -0.2943    0.0007 
 C                     3.5633   -0.2943    0.0005 
 H                    -1.214     3.0024    0.0002 
 H                     1.2138    3.0025    0.0002 
 H                    -1.0604   -2.5534   -0.0004 
 H                     1.0605   -2.5533   -0.0004 
 H                    -3.3475    1.8309    0.0009 
 H                     3.3474    1.831     0.0006 
 H                    -3.4858   -2.4405    0.0003 
 H                     3.4858   -2.4404    0.0006 
 H                    -4.648    -0.2517    0.0012 
 H                     4.6481   -0.2517    0.0009 
 

 GradGradGradGradGradGradGradGradGradGradGradGradGradGradGradGradGradGrad
 Berny optimization.
 Initialization pass.
                           ----------------------------
                           !    Initial Parameters    !
                           ! (Angstroms and Degrees)  !
 --------------------------                            --------------------------
 ! Name  Definition              Value          Derivative Info.                !
 --------------------------------------------------------------------------------
 ! R1    R(1,2)                  1.4398         estimate D2E/DX2                !
 ! R2    R(1,3)                  1.4194         estimate D2E/DX2                !
 ! R3    R(1,7)                  1.4175         estimate D2E/DX2                !
 ! R4    R(2,4)                  1.4194         estimate D2E/DX2                !
 ! R5    R(2,8)                  1.4174         estimate D2E/DX2                !
 ! R6    R(3,5)                  1.397          estimate D2E/DX2                !
 ! R7    R(3,9)                  1.4054         estimate D2E/DX2                !
 ! R8    R(4,6)                  1.3971         estimate D2E/DX2                !
 ! R9    R(4,10)                 1.4054         estimate D2E/DX2                !
 ! R10   R(5,6)                  1.3911         estimate D2E/DX2                !
 ! R11   R(5,15)                 1.0884         estimate D2E/DX2                !
 ! R12   R(6,16)                 1.0886         estimate D2E/DX2                !
 ! R13   R(7,11)                 1.3975         estimate D2E/DX2                !
 ! R14   R(7,17)                 1.087          estimate D2E/DX2                !
 ! R15   R(8,12)                 1.3976         estimate D2E/DX2                !
 ! R16   R(8,18)                 1.087          estimate D2E/DX2                !
 ! R17   R(9,13)                 1.3913         estimate D2E/DX2                !
 ! R18   R(9,19)                 1.0886         estimate D2E/DX2                !
 ! R19   R(10,14)                1.3914         estimate D2E/DX2                !
 ! R20   R(10,20)                1.0886         estimate D2E/DX2                !
 ! R21   R(11,13)                1.3863         estimate D2E/DX2                !
 ! R22   R(11,21)                1.0862         estimate D2E/DX2                !
 ! R23   R(12,14)                1.3862         estimate D2E/DX2                !
 ! R24   R(12,22)                1.0861         estimate D2E/DX2                !
 ! R25   R(13,23)                1.0857         estimate D2E/DX2                !
 ! R26   R(14,24)                1.0856         estimate D2E/DX2                !
 ! A1    A(2,1,3)              119.1961         estimate D2E/DX2                !
 ! A2    A(2,1,7)              124.1396         estimate D2E/DX2                !
 ! A3    A(3,1,7)              116.6642         estimate D2E/DX2                !
 ! A4    A(1,2,4)              119.1961         estimate D2E/DX2                !
 ! A5    A(1,2,8)              124.1419         estimate D2E/DX2                !
 ! A6    A(4,2,8)              116.662          estimate D2E/DX2                !
 ! A7    A(1,3,5)              119.9428         estimate D2E/DX2                !
 ! A8    A(1,3,9)              120.5865         estimate D2E/DX2                !
 ! A9    A(5,3,9)              119.4707         estimate D2E/DX2                !
 ! A10   A(2,4,6)              119.9322         estimate D2E/DX2                !
 ! A11   A(2,4,10)             120.5865         estimate D2E/DX2                !
 ! A12   A(6,4,10)             119.4813         estimate D2E/DX2                !
 ! A13   A(3,5,6)              120.8611         estimate D2E/DX2                !
 ! A14   A(3,5,15)             120.702          estimate D2E/DX2                !
 ! A15   A(6,5,15)             118.4369         estimate D2E/DX2                !
 ! A16   A(4,6,5)              120.8716         estimate D2E/DX2                !
 ! A17   A(4,6,16)             120.6893         estimate D2E/DX2                !
 ! A18   A(5,6,16)             118.4391         estimate D2E/DX2                !
 ! A19   A(1,7,11)             122.1713         estimate D2E/DX2                !
 ! A20   A(1,7,17)             121.1154         estimate D2E/DX2                !
 ! A21   A(11,7,17)            116.7132         estimate D2E/DX2                !
 ! A22   A(2,8,12)             122.1737         estimate D2E/DX2                !
 ! A23   A(2,8,18)             121.1179         estimate D2E/DX2                !
 ! A24   A(12,8,18)            116.7083         estimate D2E/DX2                !
 ! A25   A(3,9,13)             121.025          estimate D2E/DX2                !
 ! A26   A(3,9,19)             120.5385         estimate D2E/DX2                !
 ! A27   A(13,9,19)            118.4365         estimate D2E/DX2                !
 ! A28   A(4,10,14)            121.0319         estimate D2E/DX2                !
 ! A29   A(4,10,20)            120.5313         estimate D2E/DX2                !
 ! A30   A(14,10,20)           118.4368         estimate D2E/DX2                !
 ! A31   A(7,11,13)            119.9771         estimate D2E/DX2                !
 ! A32   A(7,11,21)            119.9146         estimate D2E/DX2                !
 ! A33   A(13,11,21)           120.1083         estimate D2E/DX2                !
 ! A34   A(8,12,14)            119.9825         estimate D2E/DX2                !
 ! A35   A(8,12,22)            119.9103         estimate D2E/DX2                !
 ! A36   A(14,12,22)           120.1072         estimate D2E/DX2                !
 ! A37   A(9,13,11)            119.5759         estimate D2E/DX2                !
 ! A38   A(9,13,23)            120.1667         estimate D2E/DX2                !
 ! A39   A(11,13,23)           120.2574         estimate D2E/DX2                !
 ! A40   A(10,14,12)           119.5634         estimate D2E/DX2                !
 ! A41   A(10,14,24)           120.1734         estimate D2E/DX2                !
 ! A42   A(12,14,24)           120.2632         estimate D2E/DX2                !
 ! D1    D(3,1,2,4)             -0.0135         estimate D2E/DX2                !
 ! D2    D(3,1,2,8)            179.9822         estimate D2E/DX2                !
 ! D3    D(7,1,2,4)           -179.9752         estimate D2E/DX2                !
 ! D4    D(7,1,2,8)              0.0206         estimate D2E/DX2                !
 ! D5    D(2,1,3,5)              0.0134         estimate D2E/DX2                !
 ! D6    D(2,1,3,9)           -179.9581         estimate D2E/DX2                !
 ! D7    D(7,1,3,5)            179.9779         estimate D2E/DX2                !
 ! D8    D(7,1,3,9)              0.0063         estimate D2E/DX2                !
 ! D9    D(2,1,7,11)           179.9656         estimate D2E/DX2                !
 ! D10   D(2,1,7,17)            -0.0313         estimate D2E/DX2                !
 ! D11   D(3,1,7,11)             0.0031         estimate D2E/DX2                !
 ! D12   D(3,1,7,17)          -179.9938         estimate D2E/DX2                !
 ! D13   D(1,2,4,6)              0.0047         estimate D2E/DX2                !
 ! D14   D(1,2,4,10)           179.9857         estimate D2E/DX2                !
 ! D15   D(8,2,4,6)           -179.9913         estimate D2E/DX2                !
 ! D16   D(8,2,4,10)            -0.0103         estimate D2E/DX2                !
 ! D17   D(1,2,8,12)          -179.9804         estimate D2E/DX2                !
 ! D18   D(1,2,8,18)             0.0017         estimate D2E/DX2                !
 ! D19   D(4,2,8,12)             0.0155         estimate D2E/DX2                !
 ! D20   D(4,2,8,18)           179.9975         estimate D2E/DX2                !
 ! D21   D(1,3,5,6)             -0.0043         estimate D2E/DX2                !
 ! D22   D(1,3,5,15)          -179.9958         estimate D2E/DX2                !
 ! D23   D(9,3,5,6)            179.9675         estimate D2E/DX2                !
 ! D24   D(9,3,5,15)            -0.0239         estimate D2E/DX2                !
 ! D25   D(1,3,9,13)            -0.0055         estimate D2E/DX2                !
 ! D26   D(1,3,9,19)           179.9835         estimate D2E/DX2                !
 ! D27   D(5,3,9,13)          -179.9772         estimate D2E/DX2                !
 ! D28   D(5,3,9,19)             0.0118         estimate D2E/DX2                !
 ! D29   D(2,4,6,5)              0.0045         estimate D2E/DX2                !
 ! D30   D(2,4,6,16)           179.991          estimate D2E/DX2                !
 ! D31   D(10,4,6,5)          -179.9767         estimate D2E/DX2                !
 ! D32   D(10,4,6,16)            0.0098         estimate D2E/DX2                !
 ! D33   D(2,4,10,14)            0.0053         estimate D2E/DX2                !
 ! D34   D(2,4,10,20)         -179.991          estimate D2E/DX2                !
 ! D35   D(6,4,10,14)          179.9864         estimate D2E/DX2                !
 ! D36   D(6,4,10,20)           -0.0099         estimate D2E/DX2                !
 ! D37   D(3,5,6,4)             -0.0048         estimate D2E/DX2                !
 ! D38   D(3,5,6,16)          -179.9916         estimate D2E/DX2                !
 ! D39   D(15,5,6,4)           179.9868         estimate D2E/DX2                !
 ! D40   D(15,5,6,16)            0.0            estimate D2E/DX2                !
 ! D41   D(1,7,11,13)           -0.0135         estimate D2E/DX2                !
 ! D42   D(1,7,11,21)          179.9929         estimate D2E/DX2                !
 ! D43   D(17,7,11,13)         179.9836         estimate D2E/DX2                !
 ! D44   D(17,7,11,21)          -0.0101         estimate D2E/DX2                !
 ! D45   D(2,8,12,14)           -0.0153         estimate D2E/DX2                !
 ! D46   D(2,8,12,22)          179.9852         estimate D2E/DX2                !
 ! D47   D(18,8,12,14)        -179.9982         estimate D2E/DX2                !
 ! D48   D(18,8,12,22)           0.0024         estimate D2E/DX2                !
 ! D49   D(3,9,13,11)           -0.0049         estimate D2E/DX2                !
 ! D50   D(3,9,13,23)         -179.9975         estimate D2E/DX2                !
 ! D51   D(19,9,13,11)        -179.9942         estimate D2E/DX2                !
 ! D52   D(19,9,13,23)           0.0133         estimate D2E/DX2                !
 ! D53   D(4,10,14,12)          -0.0047         estimate D2E/DX2                !
 ! D54   D(4,10,14,24)        -179.9992         estimate D2E/DX2                !
 ! D55   D(20,10,14,12)        179.9918         estimate D2E/DX2                !
 ! D56   D(20,10,14,24)         -0.0028         estimate D2E/DX2                !
 ! D57   D(7,11,13,9)            0.0142         estimate D2E/DX2                !
 ! D58   D(7,11,13,23)        -179.9933         estimate D2E/DX2                !
 ! D59   D(21,11,13,9)        -179.9921         estimate D2E/DX2                !
 ! D60   D(21,11,13,23)          0.0004         estimate D2E/DX2                !
 ! D61   D(8,12,14,10)           0.0095         estimate D2E/DX2                !
 ! D62   D(8,12,14,24)        -179.996          estimate D2E/DX2                !
 ! D63   D(22,12,14,10)       -179.9911         estimate D2E/DX2                !
 ! D64   D(22,12,14,24)          0.0035         estimate D2E/DX2                !
 --------------------------------------------------------------------------------
 Trust Radius=3.00D-01 FncErr=1.00D-07 GrdErr=1.00D-06 EigMax=2.50D+02 EigMin=1.00D-04
 Number of steps in this run=    142 maximum allowed number of steps=    144.
 GradGradGradGradGradGradGradGradGradGradGradGradGradGradGradGradGradGrad

                          Input orientation:                          
 ---------------------------------------------------------------------
 Center     Atomic      Atomic             Coordinates (Angstroms)
 Number     Number       Type             X           Y           Z
 ---------------------------------------------------------------------
      1          6           0       -0.719900   -0.393000   -0.000600
      2          6           0        0.719900   -0.393000   -0.000400
      3          6           0       -1.412300    0.846100   -0.000300
      4          6           0        1.412300    0.846100   -0.000200
      5          6           0       -0.695700    2.045300   -0.000100
      6          6           0        0.695400    2.045300   -0.000100
      7          6           0       -1.515400   -1.566200   -0.000300
      8          6           0        1.515400   -1.566100   -0.000300
      9          6           0       -2.817300    0.880200    0.000400
     10          6           0        2.817300    0.880200    0.000300
     11          6           0       -2.912100   -1.518200    0.000200
     12          6           0        2.912200   -1.518100    0.000300
     13          6           0       -3.563100   -0.294300    0.000700
     14          6           0        3.563300   -0.294300    0.000500
     15          1           0       -1.214000    3.002400    0.000200
     16          1           0        1.213800    3.002500    0.000200
     17          1           0       -1.060400   -2.553400   -0.000400
     18          1           0        1.060500   -2.553300   -0.000400
     19          1           0       -3.347500    1.830900    0.000900
     20          1           0        3.347400    1.831000    0.000600
     21          1           0       -3.485800   -2.440500    0.000300
     22          1           0        3.485800   -2.440400    0.000600
     23          1           0       -4.648000   -0.251700    0.001200
     24          1           0        4.648100   -0.251700    0.000900
 ---------------------------------------------------------------------
                    Distance matrix (angstroms):
                    1          2          3          4          5
     1  C    0.000000
     2  C    1.439800   0.000000
     3  C    1.419432   2.466099   0.000000
     4  C    2.466099   1.419432   2.824600   0.000000
     5  C    2.438420   2.819438   1.396995   2.425231   0.000000
     6  C    2.819287   2.438423   2.424970   1.397149   1.391100
     7  C    1.417469   2.524473   2.414502   3.793497   3.703355
     8  C    2.524427   1.417386   3.793433   2.414402   4.234522
     9  C    2.453595   3.759365   1.405414   4.229738   2.420464
    10  C    3.759365   2.453594   4.229738   1.405414   3.701166
    11  C    2.464106   3.802302   2.799878   4.928524   4.196542
    12  C    3.802368   2.464149   4.928564   2.799847   5.070973
    13  C    2.844913   4.284137   2.434431   5.104421   3.700772
    14  C    4.284337   2.845113   5.104616   2.434607   4.859301
    15  H    3.431163   3.907520   2.165399   3.398100   1.088428
    16  H    3.907508   3.431233   3.398009   2.165517   2.135983
    17  H    2.187068   2.799428   3.417665   4.203670   4.613139
    18  H    2.799414   2.186985   4.203648   3.417555   4.922536
    19  H    3.442385   4.635674   2.171366   4.860610   2.660453
    20  H    4.635634   3.442373   4.860532   2.171322   4.048775
    21  H    3.441288   4.677624   3.886019   5.898570   5.282713
    22  H    4.677581   3.441228   5.898514   3.885934   6.132410
    23  H    3.930641   5.369760   3.416858   6.158929   4.571311
    24  H    5.369860   3.930741   6.159027   3.416953   5.816563
                    6          7          8          9         10
     6  C    0.000000
     7  C    4.234450   0.000000
     8  C    3.703324   3.030800   0.000000
     9  C    3.700881   2.771248   4.975608   0.000000
    10  C    2.420727   4.975657   2.771160   5.634600   0.000000
    11  C    5.070758   1.397525   4.427759   2.400273   6.211147
    12  C    4.196668   4.427861   1.397625   6.211201   2.400177
    13  C    4.858863   2.410561   5.235326   1.391283   6.487600
    14  C    3.701159   5.235544   2.410678   6.487797   1.391390
    15  H    2.135849   4.578531   5.321731   2.659756   4.555778
    16  H    1.088563   5.321800   4.578544   4.555648   2.659957
    17  H    4.922487   1.087009   2.758533   3.856982   5.179398
    18  H    4.613071   2.758555   1.086967   5.179407   3.856847
    19  H    4.048581   3.859648   5.931897   1.088551   6.237675
    20  H    2.660644   5.931930   3.859600   6.237591   1.088589
    21  H    6.132278   2.155662   5.077064   3.387321   7.124333
    22  H    5.282787   5.077029   2.155662   7.124286   3.387223
    23  H    5.816196   3.397219   6.301996   2.152362   7.550623
    24  H    4.571657   6.302114   3.397272   7.550721   2.152447
                   11         12         13         14         15
    11  C    0.000000
    12  C    5.824300   0.000000
    13  C    1.386266   6.589931   0.000000
    14  C    6.590048   1.386224   7.126400   0.000000
    15  H    4.829013   6.120494   4.048024   5.804380   0.000000
    16  H    6.120439   4.829119   5.804108   4.048338   2.427800
    17  H    2.121422   4.105289   3.371504   5.146080   5.557923
    18  H    4.105238   2.121422   5.145946   3.371511   6.003262
    19  H    3.377284   7.099271   2.136108   7.230189   2.433975
    20  H    7.099189   3.377258   7.229932   2.136238   4.709411
    21  H    1.086172   6.464149   2.147592   7.368581   5.897986
    22  H    6.464022   1.086119   7.368360   2.147499   7.191119
    23  H    2.148807   7.665533   1.085736   8.211411   4.730912
    24  H    7.665549   2.148748   8.211311   1.085636   6.704728
                   16         17         18         19         20
    16  H    0.000000
    17  H    6.003333   0.000000
    18  H    5.557915   2.120900   0.000000
    19  H    4.709364   4.944989   6.217047   0.000000
    20  H    2.434063   6.217046   4.944896   6.694900   0.000000
    21  H    7.191140   2.428026   4.547699   4.273638   8.058433
    22  H    5.898063   4.547604   2.427927   8.058411   4.273642
    23  H    6.704515   4.262476   6.155025   2.455305   8.262207
    24  H    4.731198   6.155063   4.262422   8.262375   2.455496
                   21         22         23         24
    21  H    0.000000
    22  H    6.971600   0.000000
    23  H    2.478216   8.423129   0.000000
    24  H    8.423252   2.478175   9.296100   0.000000
 Stoichiometry    C14H10
 Framework group  C1[X(C14H10)]
 Deg. of freedom    66
 Full point group                 C1      NOp   1
 Largest Abelian subgroup         C1      NOp   1
 Largest concise Abelian subgroup C1      NOp   1
                         Standard orientation:                         
 ---------------------------------------------------------------------
 Center     Atomic      Atomic             Coordinates (Angstroms)
 Number     Number       Type             X           Y           Z
 ---------------------------------------------------------------------
      1          6           0       -0.719896   -0.384237   -0.000650
      2          6           0        0.719904   -0.384227   -0.000450
      3          6           0       -1.412305    0.854858   -0.000350
      4          6           0        1.412295    0.854879   -0.000250
      5          6           0       -0.695714    2.054063   -0.000150
      6          6           0        0.695386    2.054073   -0.000150
      7          6           0       -1.515387   -1.557443   -0.000350
      8          6           0        1.515413   -1.557321   -0.000350
      9          6           0       -2.817306    0.888947    0.000350
     10          6           0        2.817294    0.888989    0.000250
     11          6           0       -2.912088   -1.509453    0.000150
     12          6           0        2.912212   -1.509310    0.000250
     13          6           0       -3.563097   -0.285558    0.000650
     14          6           0        3.563303   -0.285506    0.000450
     15          1           0       -1.214021    3.011159    0.000150
     16          1           0        1.213779    3.011277    0.000150
     17          1           0       -1.060380   -2.544640   -0.000450
     18          1           0        1.060520   -2.544524   -0.000450
     19          1           0       -3.347513    1.839643    0.000850
     20          1           0        3.347387    1.839793    0.000550
     21          1           0       -3.485781   -2.431758    0.000250
     22          1           0        3.485819   -2.431606    0.000550
     23          1           0       -4.647997   -0.242966    0.001150
     24          1           0        4.648103   -0.242898    0.000850
 ---------------------------------------------------------------------
 Rotational constants (GHZ):           1.6497381           0.5483498           0.4115548
 Standard basis: 6-311++G(d,p) (5D, 7F)
 There are   392 symmetry adapted cartesian basis functions of A   symmetry.
 There are   378 symmetry adapted basis functions of A   symmetry.
   378 basis functions,   594 primitive gaussians,   392 cartesian basis functions
    47 alpha electrons       47 beta electrons
       nuclear repulsion energy       776.7479131229 Hartrees.
 NAtoms=   24 NActive=   24 NUniq=   24 SFac= 1.00D+00 NAtFMM=   60 NAOKFM=F Big=F
 Integral buffers will be    131072 words long.
 Raffenetti 2 integral format.
 Two-electron integral symmetry is turned on.
 R6APFD:  NTU= -4 IXU= 1 FactS= 1.050
 Nuclear repulsion after empirical dispersion term =      776.7326493494 Hartrees.
 One-electron integrals computed using PRISM.
 NBasis=   378 RedAO= T EigKep=  1.07D-06  NBF=   378
 NBsUse=   372 1.00D-06 EigRej=  9.34D-07 NBFU=   372
 ExpMin= 3.60D-02 ExpMax= 4.56D+03 ExpMxC= 6.82D+02 IAcc=3 IRadAn=         5 AccDes= 0.00D+00
 Harris functional with IExCor= 1009 and IRadAn=       5 diagonalized for initial guess.
 HarFok:  IExCor= 1009 AccDes= 0.00D+00 IRadAn=         5 IDoV= 1 UseB2=F ITyADJ=14
 ICtDFT=  3500011 ScaDFX=  1.000000  1.000000  1.000000  1.000000
 FoFCou: FMM=F IPFlag=           0 FMFlag=      100000 FMFlg1=           0
         NFxFlg=           0 DoJE=T BraDBF=F KetDBF=T FulRan=T
         wScrn=  0.000000 ICntrl=       500 IOpCl=  0 I1Cent=   200000004 NGrid=           0
         NMat0=    1 NMatS0=      1 NMatT0=    0 NMatD0=    1 NMtDS0=    0 NMtDT0=    0
 Petite list used in FoFCou.
 Requested convergence on RMS density matrix=1.00D-08 within  32 cycles.
 Requested convergence on MAX density matrix=1.00D-06.
 Requested convergence on             energy=1.00D-06.
 No special actions if energy rises.
 SCF Done:  E(RM08HX) =  -539.527875102     A.U. after   15 cycles
            NFock= 15  Conv=0.62D-08     -V/T= 2.0050
 QCSCF skips out because SCF is already converged.

 **********************************************************************

            Population analysis using the SCF Density.

 **********************************************************************

 Orbital symmetries:
       Occupied  (A) (A) (A) (A) (A) (A) (A) (A) (A) (A) (A) (A)
                 (A) (A) (A) (A) (A) (A) (A) (A) (A) (A) (A) (A)
                 (A) (A) (A) (A) (A) (A) (A) (A) (A) (A) (A) (A)
                 (A) (A) (A) (A) (A) (A) (A) (A) (A) (A) (A)
       Virtual   (A) (A) (A) (A) (A) (A) (A) (A) (A) (A) (A) (A)
                 (A) (A) (A) (A) (A) (A) (A) (A) (A) (A) (A) (A)
                 (A) (A) (A) (A) (A) (A) (A) (A) (A) (A) (A) (A)
                 (A) (A) (A) (A) (A) (A) (A) (A) (A) (A) (A) (A)
                 (A) (A) (A) (A) (A) (A) (A) (A) (A) (A) (A) (A)
                 (A) (A) (A) (A) (A) (A) (A) (A) (A) (A) (A) (A)
                 (A) (A) (A) (A) (A) (A) (A) (A) (A) (A) (A) (A)
                 (A) (A) (A) (A) (A) (A) (A) (A) (A) (A) (A) (A)
                 (A) (A) (A) (A) (A) (A) (A) (A) (A) (A) (A) (A)
                 (A) (A) (A) (A) (A) (A) (A) (A) (A) (A) (A) (A)
                 (A) (A) (A) (A) (A) (A) (A) (A) (A) (A) (A) (A)
                 (A) (A) (A) (A) (A) (A) (A) (A) (A) (A) (A) (A)
                 (A) (A) (A) (A) (A) (A) (A) (A) (A) (A) (A) (A)
                 (A) (A) (A) (A) (A) (A) (A) (A) (A) (A) (A) (A)
                 (A) (A) (A) (A) (A) (A) (A) (A) (A) (A) (A) (A)
                 (A) (A) (A) (A) (A) (A) (A) (A) (A) (A) (A) (A)
                 (A) (A) (A) (A) (A) (A) (A) (A) (A) (A) (A) (A)
                 (A) (A) (A) (A) (A) (A) (A) (A) (A) (A) (A) (A)
                 (A) (A) (A) (A) (A) (A) (A) (A) (A) (A) (A) (A)
                 (A) (A) (A) (A) (A) (A) (A) (A) (A) (A) (A) (A)
                 (A) (A) (A) (A) (A) (A) (A) (A) (A) (A) (A) (A)
                 (A) (A) (A) (A) (A) (A) (A) (A) (A) (A) (A) (A)
                 (A) (A) (A) (A) (A) (A) (A) (A) (A) (A) (A) (A)
                 (A) (A) (A) (A) (A) (A) (A) (A) (A) (A) (A) (A)
                 (A) (A) (A) (A) (A) (A) (A) (A) (A) (A) (A) (A)
                 (A) (A) (A) (A) (A) (A) (A) (A) (A) (A) (A) (A)
                 (A) (A) (A) (A) (A) (A) (A) (A) (A) (A) (A) (A)
                 (A)
 The electronic state is 1-A.
 Alpha  occ. eigenvalues --  -10.55530 -10.55470 -10.54769 -10.54767 -10.54400
 Alpha  occ. eigenvalues --  -10.54399 -10.54126 -10.54124 -10.54075 -10.54032
 Alpha  occ. eigenvalues --  -10.54032 -10.53994 -10.53866 -10.53866  -1.00789
 Alpha  occ. eigenvalues --   -0.96847  -0.92418  -0.88844  -0.86996  -0.83087
 Alpha  occ. eigenvalues --   -0.81954  -0.73204  -0.72577  -0.70209  -0.67591
 Alpha  occ. eigenvalues --   -0.61825  -0.61511  -0.58010  -0.55895  -0.55849
 Alpha  occ. eigenvalues --   -0.51434  -0.50776  -0.49970  -0.49915  -0.48636
 Alpha  occ. eigenvalues --   -0.47796  -0.46437  -0.43883  -0.43460  -0.42821
 Alpha  occ. eigenvalues --   -0.39876  -0.39248  -0.38736  -0.35317  -0.32932
 Alpha  occ. eigenvalues --   -0.28337  -0.26543
 Alpha virt. eigenvalues --   -0.03393  -0.02826  -0.02661  -0.01919  -0.01913
 Alpha virt. eigenvalues --   -0.00312  -0.00261   0.00639   0.01651   0.01741
 Alpha virt. eigenvalues --    0.03040   0.03325   0.03419   0.04327   0.04496
 Alpha virt. eigenvalues --    0.04582   0.04605   0.05997   0.06382   0.07438
 Alpha virt. eigenvalues --    0.07777   0.07992   0.08756   0.09717   0.10640
 Alpha virt. eigenvalues --    0.10895   0.10970   0.10994   0.11171   0.11516
 Alpha virt. eigenvalues --    0.11858   0.12041   0.12190   0.12440   0.12762
 Alpha virt. eigenvalues --    0.12799   0.13180   0.13240   0.14050   0.14559
 Alpha virt. eigenvalues --    0.15310   0.16320   0.16328   0.16583   0.16761
 Alpha virt. eigenvalues --    0.17100   0.18745   0.18772   0.19279   0.19487
 Alpha virt. eigenvalues --    0.19627   0.19752   0.21896   0.22096   0.22588
 Alpha virt. eigenvalues --    0.22642   0.23590   0.23663   0.24656   0.25236
 Alpha virt. eigenvalues --    0.25971   0.25977   0.26086   0.27134   0.27309
 Alpha virt. eigenvalues --    0.28305   0.28454   0.29207   0.29385   0.29848
 Alpha virt. eigenvalues --    0.30816   0.31332   0.31918   0.32639   0.32962
 Alpha virt. eigenvalues --    0.34149   0.34159   0.34462   0.34751   0.36916
 Alpha virt. eigenvalues --    0.37421   0.38525   0.39664   0.39911   0.41035
 Alpha virt. eigenvalues --    0.43177   0.45499   0.50349   0.52492   0.52872
 Alpha virt. eigenvalues --    0.53770   0.55743   0.55952   0.56556   0.56610
 Alpha virt. eigenvalues --    0.57806   0.58341   0.58606   0.59281   0.59677
 Alpha virt. eigenvalues --    0.61119   0.61260   0.62140   0.62225   0.63112
 Alpha virt. eigenvalues --    0.63497   0.64083   0.64265   0.64651   0.65407
 Alpha virt. eigenvalues --    0.65773   0.67712   0.67990   0.68012   0.69017
 Alpha virt. eigenvalues --    0.69915   0.70982   0.73024   0.74511   0.74538
 Alpha virt. eigenvalues --    0.75011   0.77032   0.78708   0.79343   0.80090
 Alpha virt. eigenvalues --    0.80411   0.80816   0.81245   0.83894   0.84439
 Alpha virt. eigenvalues --    0.84847   0.85398   0.87633   0.88438   0.88757
 Alpha virt. eigenvalues --    0.89142   0.90692   0.92289   0.92446   0.92885
 Alpha virt. eigenvalues --    0.95682   0.96601   0.96967   0.97321   0.97327
 Alpha virt. eigenvalues --    0.97387   0.97958   0.99986   1.00159   1.01897
 Alpha virt. eigenvalues --    1.03127   1.04567   1.08170   1.09102   1.09594
 Alpha virt. eigenvalues --    1.09731   1.10115   1.13343   1.13388   1.13540
 Alpha virt. eigenvalues --    1.15187   1.16834   1.17036   1.17057   1.19406
 Alpha virt. eigenvalues --    1.21040   1.22074   1.30463   1.34561   1.35075
 Alpha virt. eigenvalues --    1.40153   1.43079   1.49899   1.50019   1.51887
 Alpha virt. eigenvalues --    1.52555   1.53219   1.53288   1.54523   1.55701
 Alpha virt. eigenvalues --    1.56103   1.58617   1.60094   1.60817   1.60941
 Alpha virt. eigenvalues --    1.61321   1.64485   1.64639   1.65316   1.68890
 Alpha virt. eigenvalues --    1.69547   1.70375   1.73080   1.74600   1.76250
 Alpha virt. eigenvalues --    1.76489   1.77181   1.77235   1.79906   1.80467
 Alpha virt. eigenvalues --    1.82465   1.83279   1.87234   1.88055   1.91129
 Alpha virt. eigenvalues --    1.91777   1.92238   1.93039   1.93119   1.95799
 Alpha virt. eigenvalues --    1.95949   1.96209   1.98512   1.99165   2.00590
 Alpha virt. eigenvalues --    2.01260   2.01554   2.02303   2.02638   2.04533
 Alpha virt. eigenvalues --    2.06373   2.09859   2.10828   2.12021   2.15797
 Alpha virt. eigenvalues --    2.16538   2.18616   2.20549   2.22996   2.26237
 Alpha virt. eigenvalues --    2.28298   2.30419   2.31877   2.35459   2.39523
 Alpha virt. eigenvalues --    2.41993   2.47815   2.47921   2.48543   2.50267
 Alpha virt. eigenvalues --    2.50356   2.52174   2.54301   2.55944   2.60285
 Alpha virt. eigenvalues --    2.63949   2.68823   2.68985   2.69013   2.70046
 Alpha virt. eigenvalues --    2.71241   2.71548   2.72332   2.72425   2.73161
 Alpha virt. eigenvalues --    2.74542   2.74889   2.75160   2.75975   2.76138
 Alpha virt. eigenvalues --    2.78971   2.79197   2.81911   2.82064   2.86213
 Alpha virt. eigenvalues --    2.87006   2.87387   2.89457   2.92015   2.93141
 Alpha virt. eigenvalues --    2.97028   2.98225   2.98413   2.99812   3.00129
 Alpha virt. eigenvalues --    3.04794   3.05271   3.13901   3.16865   3.20260
 Alpha virt. eigenvalues --    3.29060   3.30362   3.33520   3.41679   3.42302
 Alpha virt. eigenvalues --    3.43996   3.47015   3.48601   3.49929   3.50586
 Alpha virt. eigenvalues --    3.52384   3.57996   3.60628   3.61218   3.65608
 Alpha virt. eigenvalues --    3.70091   3.72967   3.82113   3.89663   4.07611
 Alpha virt. eigenvalues --    4.09453   4.10721   4.12229   4.15550   4.20823
 Alpha virt. eigenvalues --    4.30687   4.35815   4.58899   4.88914   4.93081
 Alpha virt. eigenvalues --    4.94315  23.55568  23.80210  23.92712  23.99926
 Alpha virt. eigenvalues --   24.03475  24.05013  24.06227  24.10394  24.11521
 Alpha virt. eigenvalues --   24.13331  24.13374  24.22286  24.23879  24.24262
          Condensed to atoms (all electrons):
               1          2          3          4          5          6
     1  C   21.234689   9.989066  -5.169509  -4.606757  -2.834738  -1.126054
     2  C    9.989066  21.234766  -4.616865  -5.173634  -1.121106  -2.842120
     3  C   -5.169509  -4.616865  23.075538   8.554873  -2.206650  -3.249211
     4  C   -4.606757  -5.173634   8.554873  23.074374  -3.255193  -2.201650
     5  C   -2.834738  -1.121106  -2.206650  -3.255193  13.489772   2.189173
     6  C   -1.126054  -2.842120  -3.249211  -2.201650   2.189173  13.496921
     7  C   -1.550851  -1.075219  -3.269339  -6.832192  -0.955802   0.841065
     8  C   -1.078530  -1.540963  -6.836397  -3.276261   0.842299  -0.961947
     9  C   -5.191775  -2.697502  -0.326487  -0.035202   0.886525   0.286541
    10  C   -2.691034  -5.177184  -0.042587  -0.339569   0.284515   0.884397
    11  C   -3.303070  -1.037586   1.237783  -0.871429   0.428551   0.393632
    12  C   -1.039191  -3.310045  -0.866003   1.248695   0.393646   0.430401
    13  C    2.989780   0.328763  -1.142529   0.025397  -1.448963  -0.932639
    14  C    0.328479   2.990982   0.024643  -1.144481  -0.931457  -1.448736
    15  H    0.011624  -0.016069  -0.054421  -0.024240   0.412376  -0.012479
    16  H   -0.016297   0.011334  -0.023964  -0.054206  -0.012436   0.412432
    17  H   -0.092232  -0.051392  -0.044462  -0.122668  -0.026114   0.006313
    18  H   -0.051420  -0.091826  -0.123151  -0.045156   0.006290  -0.026218
    19  H   -0.097806  -0.032820  -0.050271   0.013466   0.073610   0.044663
    20  H   -0.032757  -0.097536   0.013359  -0.050433   0.044637   0.073476
    21  H    0.059443   0.020989  -0.006083   0.009417  -0.005546  -0.003656
    22  H    0.021029   0.059467   0.009461  -0.006022  -0.003669  -0.005544
    23  H   -0.000518  -0.008236   0.021217   0.005439  -0.000824   0.000196
    24  H   -0.008243  -0.000620   0.005442   0.021367   0.000208  -0.000779
               7          8          9         10         11         12
     1  C   -1.550851  -1.078530  -5.191775  -2.691034  -3.303070  -1.039191
     2  C   -1.075219  -1.540963  -2.697502  -5.177184  -1.037586  -3.310045
     3  C   -3.269339  -6.836397  -0.326487  -0.042587   1.237783  -0.866003
     4  C   -6.832192  -3.276261  -0.035202  -0.339569  -0.871429   1.248695
     5  C   -0.955802   0.842299   0.886525   0.284515   0.428551   0.393646
     6  C    0.841065  -0.961947   0.286541   0.884397   0.393632   0.430401
     7  C   16.648888   0.882443   2.833115  -0.390625   1.585314  -0.688421
     8  C    0.882443  16.654150  -0.394802   2.838928  -0.683922   1.579764
     9  C    2.833115  -0.394802  10.491450   0.611043   0.335215  -0.152355
    10  C   -0.390625   2.838928   0.611043  10.483990  -0.153065   0.335873
    11  C    1.585314  -0.683922   0.335215  -0.153065   8.811899   0.091239
    12  C   -0.688421   1.579764  -0.152355   0.335873   0.091239   8.815351
    13  C   -1.681823   0.174857  -0.963167  -0.111687  -0.433494  -0.102709
    14  C    0.175171  -1.677761  -0.111938  -0.960832  -0.102326  -0.437920
    15  H   -0.051763  -0.009800   0.044493  -0.006601  -0.003796   0.003033
    16  H   -0.009891  -0.051888  -0.006544   0.044445   0.003050  -0.003783
    17  H    0.616907   0.029889   0.079679  -0.020839   0.052043  -0.064625
    18  H    0.030371   0.617438  -0.020927   0.079687  -0.064472   0.051711
    19  H    0.094205   0.002581   0.441714   0.006922   0.005038  -0.000276
    20  H    0.002613   0.094311   0.006908   0.441689  -0.000282   0.005008
    21  H   -0.029500   0.007806  -0.029311   0.000829   0.317535   0.007033
    22  H    0.007786  -0.029324   0.000842  -0.029352   0.007013   0.317425
    23  H   -0.029192  -0.010487  -0.018391  -0.000725  -0.025314  -0.002768
    24  H   -0.010492  -0.029303  -0.000727  -0.018391  -0.002765  -0.025214
              13         14         15         16         17         18
     1  C    2.989780   0.328479   0.011624  -0.016297  -0.092232  -0.051420
     2  C    0.328763   2.990982  -0.016069   0.011334  -0.051392  -0.091826
     3  C   -1.142529   0.024643  -0.054421  -0.023964  -0.044462  -0.123151
     4  C    0.025397  -1.144481  -0.024240  -0.054206  -0.122668  -0.045156
     5  C   -1.448963  -0.931457   0.412376  -0.012436  -0.026114   0.006290
     6  C   -0.932639  -1.448736  -0.012479   0.412432   0.006313  -0.026218
     7  C   -1.681823   0.175171  -0.051763  -0.009891   0.616907   0.030371
     8  C    0.174857  -1.677761  -0.009800  -0.051888   0.029889   0.617438
     9  C   -0.963167  -0.111938   0.044493  -0.006544   0.079679  -0.020927
    10  C   -0.111687  -0.960832  -0.006601   0.044445  -0.020839   0.079687
    11  C   -0.433494  -0.102326  -0.003796   0.003050   0.052043  -0.064472
    12  C   -0.102709  -0.437920   0.003033  -0.003783  -0.064625   0.051711
    13  C    9.502420   0.046519   0.042015   0.001770   0.022246   0.001065
    14  C    0.046519   9.500908   0.001773   0.041994   0.001007   0.022383
    15  H    0.042015   0.001773   0.425012  -0.001765  -0.000013   0.000034
    16  H    0.001770   0.041994  -0.001765   0.425031   0.000033  -0.000013
    17  H    0.022246   0.001007  -0.000013   0.000033   0.475250   0.004062
    18  H    0.001065   0.022383   0.000034  -0.000013   0.004062   0.475330
    19  H   -0.158981  -0.001693  -0.001644   0.000256   0.002477  -0.000269
    20  H   -0.001690  -0.158862   0.000255  -0.001644  -0.000269   0.002479
    21  H   -0.050770  -0.002422   0.000162  -0.000154  -0.013442   0.002255
    22  H   -0.002423  -0.050933  -0.000155   0.000162   0.002256  -0.013451
    23  H    0.388622   0.000182   0.001107  -0.000218   0.002293  -0.000408
    24  H    0.000182   0.388574  -0.000218   0.001108  -0.000408   0.002293
              19         20         21         22         23         24
     1  C   -0.097806  -0.032757   0.059443   0.021029  -0.000518  -0.008243
     2  C   -0.032820  -0.097536   0.020989   0.059467  -0.008236  -0.000620
     3  C   -0.050271   0.013359  -0.006083   0.009461   0.021217   0.005442
     4  C    0.013466  -0.050433   0.009417  -0.006022   0.005439   0.021367
     5  C    0.073610   0.044637  -0.005546  -0.003669  -0.000824   0.000208
     6  C    0.044663   0.073476  -0.003656  -0.005544   0.000196  -0.000779
     7  C    0.094205   0.002613  -0.029500   0.007786  -0.029192  -0.010492
     8  C    0.002581   0.094311   0.007806  -0.029324  -0.010487  -0.029303
     9  C    0.441714   0.006908  -0.029311   0.000842  -0.018391  -0.000727
    10  C    0.006922   0.441689   0.000829  -0.029352  -0.000725  -0.018391
    11  C    0.005038  -0.000282   0.317535   0.007013  -0.025314  -0.002765
    12  C   -0.000276   0.005008   0.007033   0.317425  -0.002768  -0.025214
    13  C   -0.158981  -0.001690  -0.050770  -0.002423   0.388622   0.000182
    14  C   -0.001693  -0.158862  -0.002422  -0.050933   0.000182   0.388574
    15  H   -0.001644   0.000255   0.000162  -0.000155   0.001107  -0.000218
    16  H    0.000256  -0.001644  -0.000154   0.000162  -0.000218   0.001108
    17  H    0.002477  -0.000269  -0.013442   0.002256   0.002293  -0.000408
    18  H   -0.000269   0.002479   0.002255  -0.013451  -0.000408   0.002293
    19  H    0.430981   0.000297   0.001146   0.000076  -0.007219   0.000024
    20  H    0.000297   0.430971   0.000076   0.001146   0.000024  -0.007219
    21  H    0.001146   0.000076   0.414519   0.000084  -0.006605   0.000003
    22  H    0.000076   0.001146   0.000084   0.414530   0.000003  -0.006601
    23  H   -0.007219   0.000024  -0.006605   0.000003   0.416435  -0.000013
    24  H    0.000024  -0.007219   0.000003  -0.006601  -0.000013   0.416411
 Mulliken charges:
               1
     1  C    0.256671
     2  C    0.255358
     3  C    1.085611
     4  C    1.086063
     5  C   -0.249104
     6  C   -0.248176
     7  C   -1.142768
     8  C   -1.143081
     9  C   -0.068397
    10  C   -0.069827
    11  C   -0.586792
    12  C   -0.585868
    13  C   -0.492761
    14  C   -0.493255
    15  H    0.241081
    16  H    0.241191
    17  H    0.142008
    18  H    0.141913
    19  H    0.233523
    20  H    0.233444
    21  H    0.306191
    22  H    0.306196
    23  H    0.275398
    24  H    0.275382
 Sum of Mulliken charges =  -0.00000
 Mulliken charges with hydrogens summed into heavy atoms:
               1
     1  C    0.256671
     2  C    0.255358
     3  C    1.085611
     4  C    1.086063
     5  C   -0.008023
     6  C   -0.006985
     7  C   -1.000760
     8  C   -1.001167
     9  C    0.165125
    10  C    0.163617
    11  C   -0.280602
    12  C   -0.279672
    13  C   -0.217363
    14  C   -0.217873
 Electronic spatial extent (au):  <R**2>=           2621.6232
 Charge=              0.0000 electrons
 Dipole moment (field-independent basis, Debye):
    X=              0.0000    Y=             -0.0125    Z=              0.0015  Tot=              0.0126
 Quadrupole moment (field-independent basis, Debye-Ang):
   XX=            -70.4806   YY=            -71.3874   ZZ=            -89.8845
   XY=             -0.0011   XZ=             -0.0003   YZ=              0.0021
 Traceless Quadrupole moment (field-independent basis, Debye-Ang):
   XX=              6.7702   YY=              5.8635   ZZ=            -12.6337
   XY=             -0.0011   XZ=             -0.0003   YZ=              0.0021
 Octapole moment (field-independent basis, Debye-Ang**2):
  XXX=              0.0110  YYY=             -0.4922  ZZZ=              0.0009  XYY=             -0.0043
  XXY=             -1.1245  XXZ=              0.0349  XZZ=             -0.0009  YZZ=              0.2932
  YYZ=              0.0084  XYZ=             -0.0032
 Hexadecapole moment (field-independent basis, Debye-Ang**3):
 XXXX=          -2365.6923 YYYY=           -879.4182 ZZZZ=           -107.3745 XXXY=             -0.0140
 XXXZ=             -0.0030 YYYX=             -0.0069 YYYZ=              0.0118 ZZZX=              0.0109
 ZZZY=             -0.0081 XXYY=           -538.5784 XXZZ=           -520.6922 YYZZ=           -203.2714
 XXYZ=             -0.0012 YYXZ=              0.0065 ZZXY=             -0.0024
 N-N= 7.767326493494D+02 E-N=-2.803622343113D+03  KE= 5.368207651239D+02
 R6APFD:  NTU= -4 IXU= 1 FactS= 1.050
 Calling FoFJK, ICntrl=      2127 FMM=F ISym2X=0 I1Cent= 0 IOpClX= 0 NMat=1 NMatS=1 NMatT=0.
 ***** Axes restored to original set *****
 -------------------------------------------------------------------
 Center     Atomic                   Forces (Hartrees/Bohr)
 Number     Number              X              Y              Z
 -------------------------------------------------------------------
      1        6          -0.015466635   -0.008641768    0.000041174
      2        6           0.015449324   -0.008615936   -0.000028037
      3        6          -0.010931529   -0.013079603    0.000023212
      4        6           0.010848405   -0.012993021    0.000016730
      5        6           0.048844347    0.023953023   -0.000008473
      6        6          -0.048669836    0.023964537    0.000003596
      7        6          -0.008785124   -0.002088638   -0.000012422
      8        6           0.008885625   -0.002107560    0.000027000
      9        6          -0.015516047   -0.014610366    0.000002801
     10        6           0.015556408   -0.014587363   -0.000005894
     11        6           0.022635819   -0.007632540   -0.000006219
     12        6          -0.022709069   -0.007637530   -0.000022396
     13        6           0.001446817    0.021107256   -0.000020613
     14        6          -0.001601846    0.021177697    0.000007792
     15        1          -0.002964092   -0.000886124   -0.000002160
     16        1           0.002914565   -0.000957701   -0.000003051
     17        1           0.003897438    0.000631990   -0.000004900
     18        1          -0.003910273    0.000606174   -0.000004304
     19        1           0.003266264    0.002518276   -0.000006638
     20        1          -0.003271090    0.002493988   -0.000004830
     21        1           0.000371490   -0.001997629    0.000004391
     22        1          -0.000353570   -0.002031813   -0.000004945
     23        1          -0.002027561    0.000703146    0.000005265
     24        1           0.002090171    0.000711506    0.000002922
 -------------------------------------------------------------------
 Cartesian Forces:  Max     0.048844347 RMS     0.011975537

 GradGradGradGradGradGradGradGradGradGradGradGradGradGradGradGradGradGrad
 Berny optimization.
 FormGI is forming the generalized inverse of G from B-inverse, IUseBI=4.
 Internal  Forces:  Max     0.028987522 RMS     0.005794733
 Search for a local minimum.
 Step number   1 out of a maximum of  142
 All quantities printed in internal units (Hartrees-Bohrs-Radians)
 Mixed Optimization -- RFO/linear search
 Second derivative matrix not updated -- first step.
 ITU=  0
     Eigenvalues ---    0.01740   0.01778   0.01815   0.01935   0.01949
     Eigenvalues ---    0.01987   0.01991   0.01993   0.02060   0.02060
     Eigenvalues ---    0.02103   0.02106   0.02141   0.02154   0.02175
     Eigenvalues ---    0.02188   0.02189   0.02200   0.02201   0.02239
     Eigenvalues ---    0.02239   0.16000   0.16000   0.16000   0.16000
     Eigenvalues ---    0.16000   0.16000   0.16000   0.16000   0.16000
     Eigenvalues ---    0.16000   0.22000   0.22000   0.22345   0.22588
     Eigenvalues ---    0.22774   0.24300   0.24481   0.24704   0.25000
     Eigenvalues ---    0.34976   0.34979   0.34981   0.34995   0.35161
     Eigenvalues ---    0.35165   0.35259   0.35265   0.35310   0.35322
     Eigenvalues ---    0.37500   0.37610   0.39993   0.40512   0.40587
     Eigenvalues ---    0.43302   0.43361   0.44873   0.45070   0.45483
     Eigenvalues ---    0.45495   0.45964   0.46010   0.46606   0.47369
     Eigenvalues ---    0.47382
 RFO step:  Lambda=-1.07014433D-02 EMin= 1.73957849D-02
 Linear search not attempted -- first point.
 Iteration  1 RMS(Cart)=  0.03507381 RMS(Int)=  0.00030954
 Iteration  2 RMS(Cart)=  0.00041791 RMS(Int)=  0.00001495
 Iteration  3 RMS(Cart)=  0.00000005 RMS(Int)=  0.00001495
 Variable       Old X    -DE/DX   Delta X   Delta X   Delta X     New X
                                 (Linear)    (Quad)   (Total)
    R1        2.72083   0.00323   0.00000   0.00820   0.00822   2.72905
    R2        2.68234   0.00349   0.00000   0.00807   0.00811   2.69045
    R3        2.67863  -0.00803   0.00000  -0.01895  -0.01895   2.65968
    R4        2.68234   0.00352   0.00000   0.00813   0.00816   2.69050
    R5        2.67847  -0.00799   0.00000  -0.01884  -0.01883   2.65964
    R6        2.63994   0.02899   0.00000   0.06131   0.06130   2.70124
    R7        2.65585   0.00423   0.00000   0.00978   0.00981   2.66565
    R8        2.64023   0.02884   0.00000   0.06103   0.06102   2.70125
    R9        2.65585   0.00419   0.00000   0.00970   0.00972   2.66557
   R10        2.62880  -0.02800   0.00000  -0.05832  -0.05833   2.57046
   R11        2.05683   0.00063   0.00000   0.00175   0.00175   2.05858
   R12        2.05709   0.00055   0.00000   0.00151   0.00151   2.05860
   R13        2.64094  -0.01435   0.00000  -0.03100  -0.03102   2.60992
   R14        2.05415   0.00106   0.00000   0.00292   0.00292   2.05707
   R15        2.64113  -0.01442   0.00000  -0.03116  -0.03118   2.60995
   R16        2.05407   0.00109   0.00000   0.00300   0.00300   2.05707
   R17        2.62914  -0.01061   0.00000  -0.02144  -0.02144   2.60770
   R18        2.05706   0.00061   0.00000   0.00169   0.00169   2.05875
   R19        2.62935  -0.01069   0.00000  -0.02160  -0.02161   2.60774
   R20        2.05714   0.00059   0.00000   0.00162   0.00162   2.05876
   R21        2.61966   0.01658   0.00000   0.03387   0.03385   2.65351
   R22        2.05257   0.00150   0.00000   0.00413   0.00413   2.05670
   R23        2.61958   0.01661   0.00000   0.03392   0.03389   2.65348
   R24        2.05247   0.00154   0.00000   0.00423   0.00423   2.05670
   R25        2.05174   0.00205   0.00000   0.00564   0.00564   2.05739
   R26        2.05156   0.00212   0.00000   0.00582   0.00582   2.05737
    A1        2.08037  -0.00050   0.00000  -0.00080  -0.00078   2.07958
    A2        2.16665  -0.00735   0.00000  -0.02797  -0.02801   2.13864
    A3        2.03617   0.00785   0.00000   0.02877   0.02879   2.06497
    A4        2.08037  -0.00049   0.00000  -0.00080  -0.00078   2.07959
    A5        2.16668  -0.00735   0.00000  -0.02800  -0.02803   2.13865
    A6        2.03614   0.00785   0.00000   0.02879   0.02881   2.06495
    A7        2.09340  -0.00011   0.00000  -0.00103  -0.00104   2.09236
    A8        2.10463  -0.00502   0.00000  -0.01812  -0.01808   2.08655
    A9        2.08516   0.00513   0.00000   0.01915   0.01911   2.10427
   A10        2.09321  -0.00006   0.00000  -0.00087  -0.00088   2.09233
   A11        2.10463  -0.00501   0.00000  -0.01809  -0.01804   2.08659
   A12        2.08534   0.00507   0.00000   0.01896   0.01892   2.10427
   A13        2.10942   0.00060   0.00000   0.00184   0.00183   2.11125
   A14        2.10665  -0.00342   0.00000  -0.01916  -0.01916   2.08749
   A15        2.06711   0.00281   0.00000   0.01733   0.01733   2.08445
   A16        2.10961   0.00057   0.00000   0.00166   0.00165   2.11126
   A17        2.10643  -0.00339   0.00000  -0.01902  -0.01902   2.08741
   A18        2.06715   0.00282   0.00000   0.01736   0.01736   2.08452
   A19        2.13229  -0.00352   0.00000  -0.01732  -0.01734   2.11495
   A20        2.11386  -0.00215   0.00000  -0.01423  -0.01422   2.09964
   A21        2.03703   0.00567   0.00000   0.03155   0.03156   2.06859
   A22        2.13233  -0.00354   0.00000  -0.01738  -0.01740   2.11494
   A23        2.11391  -0.00214   0.00000  -0.01420  -0.01419   2.09971
   A24        2.03694   0.00568   0.00000   0.03159   0.03159   2.06854
   A25        2.11228  -0.00133   0.00000  -0.00314  -0.00311   2.10917
   A26        2.10379  -0.00353   0.00000  -0.02301  -0.02302   2.08077
   A27        2.06711   0.00486   0.00000   0.02615   0.02614   2.09324
   A28        2.11241  -0.00135   0.00000  -0.00326  -0.00324   2.10917
   A29        2.10367  -0.00351   0.00000  -0.02290  -0.02291   2.08076
   A30        2.06711   0.00486   0.00000   0.02616   0.02615   2.09326
   A31        2.09400   0.00196   0.00000   0.00786   0.00782   2.10181
   A32        2.09291  -0.00239   0.00000  -0.01217  -0.01215   2.08076
   A33        2.09628   0.00042   0.00000   0.00431   0.00433   2.10062
   A34        2.09409   0.00195   0.00000   0.00780   0.00776   2.10185
   A35        2.09283  -0.00238   0.00000  -0.01216  -0.01213   2.08070
   A36        2.09627   0.00043   0.00000   0.00436   0.00438   2.10064
   A37        2.08699   0.00006   0.00000   0.00195   0.00192   2.08891
   A38        2.09730  -0.00067   0.00000  -0.00472  -0.00470   2.09260
   A39        2.09889   0.00061   0.00000   0.00277   0.00278   2.10167
   A40        2.08677   0.00011   0.00000   0.00214   0.00211   2.08889
   A41        2.09742  -0.00070   0.00000  -0.00485  -0.00484   2.09258
   A42        2.09899   0.00059   0.00000   0.00271   0.00272   2.10171
    D1       -0.00024   0.00000   0.00000   0.00017   0.00017  -0.00007
    D2        3.14128   0.00001   0.00000   0.00022   0.00021   3.14149
    D3       -3.14116  -0.00001   0.00000  -0.00031  -0.00030  -3.14145
    D4        0.00036  -0.00001   0.00000  -0.00026  -0.00025   0.00011
    D5        0.00023  -0.00000   0.00000  -0.00011  -0.00012   0.00012
    D6       -3.14086  -0.00001   0.00000  -0.00047  -0.00047  -3.14133
    D7        3.14121   0.00001   0.00000   0.00031   0.00031   3.14151
    D8        0.00011  -0.00000   0.00000  -0.00005  -0.00005   0.00006
    D9        3.14099   0.00001   0.00000   0.00037   0.00036   3.14136
   D10       -0.00055   0.00001   0.00000   0.00032   0.00032  -0.00023
   D11        0.00005  -0.00000   0.00000  -0.00008  -0.00009  -0.00003
   D12       -3.14149  -0.00000   0.00000  -0.00013  -0.00013   3.14157
   D13        0.00008  -0.00000   0.00000  -0.00009  -0.00009  -0.00001
   D14        3.14134   0.00001   0.00000   0.00014   0.00014   3.14148
   D15       -3.14144  -0.00001   0.00000  -0.00013  -0.00013  -3.14157
   D16       -0.00018   0.00000   0.00000   0.00010   0.00010  -0.00008
   D17       -3.14125  -0.00001   0.00000  -0.00021  -0.00020  -3.14145
   D18        0.00003   0.00000   0.00000   0.00003   0.00003   0.00006
   D19        0.00027  -0.00000   0.00000  -0.00016  -0.00016   0.00011
   D20        3.14155   0.00000   0.00000   0.00007   0.00007  -3.14157
   D21       -0.00008  -0.00000   0.00000  -0.00002  -0.00002  -0.00010
   D22       -3.14152  -0.00000   0.00000  -0.00013  -0.00013   3.14154
   D23        3.14103   0.00001   0.00000   0.00032   0.00033   3.14136
   D24       -0.00042   0.00000   0.00000   0.00022   0.00022  -0.00019
   D25       -0.00010   0.00000   0.00000   0.00008   0.00008  -0.00002
   D26        3.14130   0.00001   0.00000   0.00020   0.00019   3.14150
   D27       -3.14119  -0.00001   0.00000  -0.00027  -0.00028  -3.14147
   D28        0.00021  -0.00000   0.00000  -0.00016  -0.00016   0.00005
   D29        0.00008  -0.00000   0.00000  -0.00004  -0.00005   0.00003
   D30        3.14144   0.00001   0.00000   0.00016   0.00016   3.14159
   D31       -3.14119  -0.00001   0.00000  -0.00026  -0.00027  -3.14145
   D32        0.00017  -0.00000   0.00000  -0.00006  -0.00007   0.00010
   D33        0.00009  -0.00000   0.00000  -0.00007  -0.00007   0.00003
   D34       -3.14144  -0.00000   0.00000  -0.00013  -0.00012  -3.14156
   D35        3.14136   0.00000   0.00000   0.00016   0.00016   3.14151
   D36       -0.00017   0.00000   0.00000   0.00010   0.00010  -0.00007
   D37       -0.00008   0.00000   0.00000   0.00010   0.00010   0.00002
   D38       -3.14145  -0.00000   0.00000  -0.00009  -0.00009  -3.14154
   D39        3.14136   0.00000   0.00000   0.00020   0.00021   3.14157
   D40       -0.00000   0.00000   0.00000   0.00001   0.00001   0.00001
   D41       -0.00023   0.00001   0.00000   0.00020   0.00020  -0.00004
   D42        3.14147   0.00000   0.00000   0.00010   0.00010   3.14157
   D43        3.14131   0.00001   0.00000   0.00024   0.00024   3.14154
   D44       -0.00018   0.00001   0.00000   0.00014   0.00014  -0.00004
   D45       -0.00027   0.00001   0.00000   0.00019   0.00019  -0.00008
   D46        3.14133   0.00001   0.00000   0.00017   0.00017   3.14150
   D47       -3.14156  -0.00000   0.00000  -0.00002  -0.00003  -3.14159
   D48        0.00004  -0.00000   0.00000  -0.00005  -0.00005  -0.00001
   D49       -0.00009   0.00000   0.00000   0.00004   0.00003  -0.00005
   D50       -3.14155  -0.00000   0.00000  -0.00007  -0.00007   3.14157
   D51       -3.14149  -0.00000   0.00000  -0.00007  -0.00008  -3.14157
   D52        0.00023  -0.00000   0.00000  -0.00018  -0.00018   0.00005
   D53       -0.00008   0.00000   0.00000   0.00009   0.00009   0.00001
   D54       -3.14158   0.00000   0.00000  -0.00001  -0.00001  -3.14159
   D55        3.14145   0.00000   0.00000   0.00014   0.00014   3.14159
   D56       -0.00005   0.00000   0.00000   0.00005   0.00005  -0.00000
   D57        0.00025  -0.00001   0.00000  -0.00017  -0.00017   0.00008
   D58       -3.14147  -0.00000   0.00000  -0.00006  -0.00006  -3.14154
   D59       -3.14146  -0.00000   0.00000  -0.00007  -0.00007  -3.14152
   D60        0.00001   0.00000   0.00000   0.00004   0.00004   0.00005
   D61        0.00017  -0.00000   0.00000  -0.00014  -0.00014   0.00002
   D62       -3.14152  -0.00000   0.00000  -0.00005  -0.00005  -3.14157
   D63       -3.14144  -0.00000   0.00000  -0.00012  -0.00012  -3.14156
   D64        0.00006  -0.00000   0.00000  -0.00003  -0.00003   0.00003
         Item               Value     Threshold  Converged?
 Maximum Force            0.028988     0.000450     NO 
 RMS     Force            0.005795     0.000300     NO 
 Maximum Displacement     0.148087     0.001800     NO 
 RMS     Displacement     0.035049     0.001200     NO 
 Predicted change in Energy=-5.506779D-03
 GradGradGradGradGradGradGradGradGradGradGradGradGradGradGradGradGradGrad

                          Input orientation:                          
 ---------------------------------------------------------------------
 Center     Atomic      Atomic             Coordinates (Angstroms)
 Number     Number       Type             X           Y           Z
 ---------------------------------------------------------------------
      1          6           0       -0.722081   -0.382491   -0.000096
      2          6           0        0.722068   -0.382482   -0.000043
      3          6           0       -1.415607    0.860895    0.000055
      4          6           0        1.415602    0.860933    0.000074
      5          6           0       -0.680139    2.086609    0.000107
      6          6           0        0.680092    2.086626    0.000127
      7          6           0       -1.479015   -1.569060   -0.000047
      8          6           0        1.479023   -1.569011   -0.000065
      9          6           0       -2.826175    0.870723    0.000322
     10          6           0        2.826123    0.870816    0.000264
     11          6           0       -2.859738   -1.536361    0.000180
     12          6           0        2.859759   -1.536252    0.000152
     13          6           0       -3.541961   -0.309054    0.000415
     14          6           0        3.541960   -0.308951    0.000306
     15          1           0       -1.215416    3.035384    0.000172
     16          1           0        1.215415    3.035386    0.000218
     17          1           0       -0.982036   -2.537544   -0.000180
     18          1           0        0.982136   -2.537542   -0.000176
     19          1           0       -3.351357    1.825224    0.000527
     20          1           0        3.351253    1.825351    0.000383
     21          1           0       -3.413351   -2.473396    0.000185
     22          1           0        3.413358   -2.473298    0.000215
     23          1           0       -4.630383   -0.283431    0.000648
     24          1           0        4.630371   -0.283274    0.000458
 ---------------------------------------------------------------------
                    Distance matrix (angstroms):
                    1          2          3          4          5
     1  C    0.000000
     2  C    1.444149   0.000000
     3  C    1.423723   2.472982   0.000000
     4  C    2.473012   1.423752   2.831208   0.000000
     5  C    2.469456   2.839471   1.429436   2.427841   0.000000
     6  C    2.839477   2.469465   2.427832   1.429440   1.360231
     7  C    1.407443   2.500547   2.430782   3.779375   3.741940
     8  C    2.500537   1.407420   3.779328   2.430772   4.245650
     9  C    2.449033   3.763051   1.410603   4.241788   2.466546
    10  C    3.763048   2.449041   4.241741   1.410556   3.711068
    11  C    2.429196   3.763081   2.798634   4.901587   4.228069
    12  C    3.763076   2.429178   4.901537   2.798587   5.065175
    13  C    2.820837   4.264662   2.426966   5.093751   3.732188
    14  C    4.264675   2.820850   5.093723   2.426939   4.854362
    15  H    3.453296   3.928823   2.183685   3.413282   1.089356
    16  H    3.928839   3.453290   3.413310   2.183648   2.119742
    17  H    2.170674   2.747410   3.425984   4.159124   4.633997
    18  H    2.747471   2.170696   4.159152   3.426007   4.913851
    19  H    3.433235   4.633223   2.162651   4.863512   2.683975
    20  H    4.633208   3.433241   4.863448   2.162603   4.039849
    21  H    3.408052   4.633963   3.886962   5.868265   5.316398
    22  H    4.633932   3.408013   5.868197   3.886918   6.127762
    23  H    3.909558   5.353368   3.412370   6.153332   4.606681
    24  H    5.353372   3.909562   6.153289   3.412324   5.815313
                    6          7          8          9         10
     6  C    0.000000
     7  C    4.245679   0.000000
     8  C    3.741922   2.958038   0.000000
     9  C    3.711109   2.787002   4.948438   0.000000
    10  C    2.466505   4.948456   2.787013   5.652299   0.000000
    11  C    5.065218   1.381110   4.338884   2.407318   6.174425
    12  C    4.228025   4.338898   1.381125   6.174413   2.407303
    13  C    4.854381   2.417305   5.176657   1.379936   6.476465
    14  C    3.732169   5.176685   2.417325   6.476479   1.379955
    15  H    2.119691   4.611983   5.334834   2.698204   4.584691
    16  H    1.089365   5.334874   4.611937   4.584782   2.698099
    17  H    4.913819   1.088554   2.644781   3.875194   5.110674
    18  H    4.634023   2.644849   1.088553   5.110725   3.875203
    19  H    4.039914   3.876445   5.903677   1.089444   6.250772
    20  H    2.683909   5.903687   3.876460   6.250755   1.089449
    21  H    6.127812   2.135293   4.975262   3.395277   7.079180
    22  H    5.316357   4.975235   2.135272   7.079142   3.395283
    23  H    5.815351   3.403522   6.243201   2.141783   7.545315
    24  H    4.606640   6.243224   3.403545   7.545316   2.141783
                   11         12         13         14         15
    11  C    0.000000
    12  C    5.719497   0.000000
    13  C    1.404176   6.518285   0.000000
    14  C    6.518303   1.404160   7.083922   0.000000
    15  H    4.858462   6.124288   4.074074   5.815257   0.000000
    16  H    6.124357   4.858368   5.815317   4.073991   2.430832
    17  H    2.127941   3.970135   3.394022   5.043130   5.577812
    18  H    3.970184   2.127921   5.043175   3.394012   5.990554
    19  H    3.397344   7.062399   2.142773   7.216129   2.454940
    20  H    7.062402   3.397344   7.216100   2.142806   4.724262
    21  H    1.088357   6.342724   2.168159   7.284310   5.931068
    22  H    6.342680   1.088360   7.284258   2.168164   7.195216
    23  H    2.169106   7.594194   1.088723   8.172383   4.761988
    24  H    7.594206   2.169106   8.172373   1.088714   6.722107
                   16         17         18         19         20
    16  H    0.000000
    17  H    5.990520   0.000000
    18  H    5.577808   1.964172   0.000000
    19  H    4.724394   4.964617   6.149219   0.000000
    20  H    2.454788   6.149166   4.964630   6.702610   0.000000
    21  H    7.195287   2.432161   4.395955   4.299067   8.014930
    22  H    5.930982   4.395863   2.432071   8.014902   4.299098
    23  H    6.722195   4.288527   6.048255   2.466239   8.255512
    24  H    4.761872   6.048210   4.288513   8.255528   2.466261
                   21         22         23         24
    21  H    0.000000
    22  H    6.826709   0.000000
    23  H    2.505417   8.336503   0.000000
    24  H    8.336552   2.505460   9.260754   0.000000
 Stoichiometry    C14H10
 Framework group  C1[X(C14H10)]
 Deg. of freedom    66
 Full point group                 C1      NOp   1
 Largest Abelian subgroup         C1      NOp   1
 Largest concise Abelian subgroup C1      NOp   1
                         Standard orientation:                         
 ---------------------------------------------------------------------
 Center     Atomic      Atomic             Coordinates (Angstroms)
 Number     Number       Type             X           Y           Z
 ---------------------------------------------------------------------
      1          6           0       -0.722082   -0.375993   -0.000233
      2          6           0        0.722067   -0.376012   -0.000181
      3          6           0       -1.415583    0.867407   -0.000083
      4          6           0        1.415625    0.867389   -0.000064
      5          6           0       -0.680091    2.093107   -0.000031
      6          6           0        0.680140    2.093097   -0.000010
      7          6           0       -1.479041   -1.562546   -0.000185
      8          6           0        1.478997   -1.562557   -0.000203
      9          6           0       -2.826152    0.877264    0.000184
     10          6           0        2.826147    0.877244    0.000126
     11          6           0       -2.859763   -1.529820    0.000042
     12          6           0        2.859734   -1.529826    0.000014
     13          6           0       -3.541962   -0.302499    0.000278
     14          6           0        3.541960   -0.302539    0.000168
     15          1           0       -1.215349    3.041893    0.000034
     16          1           0        1.215482    3.041845    0.000080
     17          1           0       -0.982081   -2.531040   -0.000318
     18          1           0        0.982091   -2.531078   -0.000314
     19          1           0       -3.351314    1.831776    0.000389
     20          1           0        3.351296    1.831768    0.000245
     21          1           0       -3.413395   -2.466843    0.000048
     22          1           0        3.413314   -2.466883    0.000077
     23          1           0       -4.630383   -0.276853    0.000510
     24          1           0        4.630372   -0.276883    0.000320
 ---------------------------------------------------------------------
 Rotational constants (GHZ):           1.6158054           0.5568742           0.4141431
 Standard basis: 6-311++G(d,p) (5D, 7F)
 There are   392 symmetry adapted cartesian basis functions of A   symmetry.
 There are   378 symmetry adapted basis functions of A   symmetry.
   378 basis functions,   594 primitive gaussians,   392 cartesian basis functions
    47 alpha electrons       47 beta electrons
       nuclear repulsion energy       776.9600100464 Hartrees.
 NAtoms=   24 NActive=   24 NUniq=   24 SFac= 1.00D+00 NAtFMM=   60 NAOKFM=F Big=F
 Integral buffers will be    131072 words long.
 Raffenetti 2 integral format.
 Two-electron integral symmetry is turned on.
 R6APFD:  NTU= -4 IXU= 1 FactS= 1.050
 Nuclear repulsion after empirical dispersion term =      776.9446920860 Hartrees.
 One-electron integrals computed using PRISM.
 NBasis=   378 RedAO= T EigKep=  1.03D-06  NBF=   378
 NBsUse=   372 1.00D-06 EigRej=  8.76D-07 NBFU=   372
 Initial guess from the checkpoint file:  "PNTE0146.chk"
 B after Tr=    -0.000000    0.000000   -0.000000
         Rot=    1.000000   -0.000010   -0.000001    0.000014 Ang=  -0.00 deg.
 ExpMin= 3.60D-02 ExpMax= 4.56D+03 ExpMxC= 6.82D+02 IAcc=3 IRadAn=         5 AccDes= 0.00D+00
 Harris functional with IExCor= 1009 and IRadAn=       5 diagonalized for initial guess.
 HarFok:  IExCor= 1009 AccDes= 0.00D+00 IRadAn=         5 IDoV= 1 UseB2=F ITyADJ=14
 ICtDFT=  3500011 ScaDFX=  1.000000  1.000000  1.000000  1.000000
 FoFCou: FMM=F IPFlag=           0 FMFlag=      100000 FMFlg1=           0
         NFxFlg=           0 DoJE=T BraDBF=F KetDBF=T FulRan=T
         wScrn=  0.000000 ICntrl=       500 IOpCl=  0 I1Cent=   200000004 NGrid=           0
         NMat0=    1 NMatS0=      1 NMatT0=    0 NMatD0=    1 NMtDS0=    0 NMtDT0=    0
 Petite list used in FoFCou.
 Requested convergence on RMS density matrix=1.00D-08 within  32 cycles.
 Requested convergence on MAX density matrix=1.00D-06.
 Requested convergence on             energy=1.00D-06.
 No special actions if energy rises.
 SCF Done:  E(RM08HX) =  -539.533649158     A.U. after   13 cycles
            NFock= 13  Conv=0.81D-08     -V/T= 2.0051
 QCSCF skips out because SCF is already converged.
 R6APFD:  NTU= -4 IXU= 1 FactS= 1.050
 Calling FoFJK, ICntrl=      2127 FMM=F ISym2X=0 I1Cent= 0 IOpClX= 0 NMat=1 NMatS=1 NMatT=0.
 ***** Axes restored to original set *****
 -------------------------------------------------------------------
 Center     Atomic                   Forces (Hartrees/Bohr)
 Number     Number              X              Y              Z
 -------------------------------------------------------------------
      1        6          -0.006026852    0.005585014    0.000011844
      2        6           0.006029882    0.005598889   -0.000009829
      3        6          -0.001422080   -0.006118475    0.000005419
      4        6           0.001377544   -0.006126697    0.000007155
      5        6           0.009894235    0.003748354   -0.000001399
      6        6          -0.009882154    0.003743617   -0.000002359
      7        6          -0.004177616   -0.002151861   -0.000004233
      8        6           0.004195273   -0.002156464    0.000006182
      9        6          -0.002051779   -0.003407791   -0.000000212
     10        6           0.002083034   -0.003415059   -0.000003636
     11        6           0.002715822   -0.001611159   -0.000001500
     12        6          -0.002720424   -0.001624636   -0.000002715
     13        6           0.000127136    0.003340665   -0.000004740
     14        6          -0.000137033    0.003355807    0.000000271
     15        1          -0.002302215   -0.001041793    0.000000830
     16        1           0.002291612   -0.001042627   -0.000000457
     17        1          -0.000334097    0.001216104    0.000000416
     18        1           0.000329021    0.001218394   -0.000000089
     19        1           0.000943151    0.000828554   -0.000001903
     20        1          -0.000941723    0.000824214   -0.000000228
     21        1          -0.000960491    0.000310564    0.000002006
     22        1           0.000963773    0.000314088   -0.000001786
     23        1           0.000121233   -0.000692464    0.000000092
     24        1          -0.000115253   -0.000695237    0.000000872
 -------------------------------------------------------------------
 Cartesian Forces:  Max     0.009894235 RMS     0.002834426

 GradGradGradGradGradGradGradGradGradGradGradGradGradGradGradGradGradGrad
 Berny optimization.
 Using GEDIIS/GDIIS optimizer.
 FormGI is forming the generalized inverse of G from B-inverse, IUseBI=4.
 Internal  Forces:  Max     0.008090949 RMS     0.001364073
 Search for a local minimum.
 Step number   2 out of a maximum of  142
 All quantities printed in internal units (Hartrees-Bohrs-Radians)
 Mixed Optimization -- RFO/linear search
 Update second derivatives using D2CorX and points    1    2
 DE= -5.77D-03 DEPred=-5.51D-03 R= 1.05D+00
 TightC=F SS=  1.41D+00  RLast= 1.71D-01 DXNew= 5.0454D-01 5.1251D-01
 Trust test= 1.05D+00 RLast= 1.71D-01 DXMaxT set to 5.05D-01
 ITU=  1  0
 Use linear search instead of GDIIS.
     Eigenvalues ---    0.01742   0.01779   0.01818   0.01935   0.01950
     Eigenvalues ---    0.01989   0.01995   0.01997   0.02061   0.02061
     Eigenvalues ---    0.02105   0.02109   0.02142   0.02154   0.02175
     Eigenvalues ---    0.02189   0.02189   0.02200   0.02201   0.02239
     Eigenvalues ---    0.02240   0.14761   0.16000   0.16000   0.16000
     Eigenvalues ---    0.16000   0.16000   0.16000   0.16000   0.16000
     Eigenvalues ---    0.16297   0.21987   0.22000   0.22336   0.22759
     Eigenvalues ---    0.22790   0.24418   0.24484   0.25000   0.25891
     Eigenvalues ---    0.34738   0.34977   0.34980   0.34991   0.35043
     Eigenvalues ---    0.35163   0.35255   0.35263   0.35314   0.35333
     Eigenvalues ---    0.35799   0.37449   0.38713   0.40561   0.40831
     Eigenvalues ---    0.42369   0.43285   0.44871   0.45241   0.45485
     Eigenvalues ---    0.45495   0.45749   0.46004   0.46782   0.47382
     Eigenvalues ---    0.50206
 RFO step:  Lambda=-8.17389381D-04 EMin= 1.74206432D-02
 Quartic linear search produced a step of  0.08468.
 Iteration  1 RMS(Cart)=  0.01022459 RMS(Int)=  0.00005153
 Iteration  2 RMS(Cart)=  0.00005536 RMS(Int)=  0.00000298
 Iteration  3 RMS(Cart)=  0.00000000 RMS(Int)=  0.00000298
 Variable       Old X    -DE/DX   Delta X   Delta X   Delta X     New X
                                 (Linear)    (Quad)   (Total)
    R1        2.72905   0.00809   0.00070   0.02238   0.02308   2.75213
    R2        2.69045  -0.00383   0.00069  -0.00972  -0.00903   2.68142
    R3        2.65968   0.00328  -0.00160   0.00867   0.00707   2.66675
    R4        2.69050  -0.00384   0.00069  -0.00976  -0.00906   2.68144
    R5        2.65964   0.00329  -0.00159   0.00870   0.00710   2.66674
    R6        2.70124   0.00385   0.00519   0.00823   0.01342   2.71466
    R7        2.66565   0.00040   0.00083   0.00064   0.00147   2.66712
    R8        2.70125   0.00385   0.00517   0.00824   0.01341   2.71466
    R9        2.66557   0.00043   0.00082   0.00071   0.00154   2.66710
   R10        2.57046  -0.00462  -0.00494  -0.01031  -0.01525   2.55521
   R11        2.05858   0.00022   0.00015   0.00067   0.00082   2.05941
   R12        2.05860   0.00022   0.00013   0.00066   0.00079   2.05939
   R13        2.60992  -0.00132  -0.00263  -0.00255  -0.00519   2.60473
   R14        2.05707  -0.00123   0.00025  -0.00383  -0.00358   2.05348
   R15        2.60995  -0.00132  -0.00264  -0.00256  -0.00521   2.60474
   R16        2.05707  -0.00123   0.00025  -0.00383  -0.00358   2.05349
   R17        2.60770  -0.00229  -0.00182  -0.00521  -0.00702   2.60068
   R18        2.05875   0.00027   0.00014   0.00082   0.00096   2.05971
   R19        2.60774  -0.00230  -0.00183  -0.00523  -0.00706   2.60068
   R20        2.05876   0.00027   0.00014   0.00081   0.00095   2.05971
   R21        2.65351   0.00057   0.00287   0.00098   0.00385   2.65735
   R22        2.05670   0.00022   0.00035   0.00063   0.00098   2.05768
   R23        2.65348   0.00057   0.00287   0.00099   0.00386   2.65733
   R24        2.05670   0.00022   0.00036   0.00063   0.00099   2.05769
   R25        2.05739  -0.00014   0.00048  -0.00048  -0.00001   2.05738
   R26        2.05737  -0.00013   0.00049  -0.00047   0.00002   2.05740
    A1        2.07958  -0.00042  -0.00007  -0.00113  -0.00119   2.07839
    A2        2.13864   0.00187  -0.00237   0.00797   0.00559   2.14423
    A3        2.06497  -0.00146   0.00244  -0.00684  -0.00440   2.06056
    A4        2.07959  -0.00042  -0.00007  -0.00114  -0.00121   2.07838
    A5        2.13865   0.00187  -0.00237   0.00798   0.00560   2.14425
    A6        2.06495  -0.00145   0.00244  -0.00683  -0.00439   2.06055
    A7        2.09236  -0.00024  -0.00009  -0.00090  -0.00099   2.09137
    A8        2.08655   0.00092  -0.00153   0.00373   0.00221   2.08876
    A9        2.10427  -0.00068   0.00162  -0.00283  -0.00122   2.10305
   A10        2.09233  -0.00024  -0.00007  -0.00088  -0.00096   2.09137
   A11        2.08659   0.00091  -0.00153   0.00370   0.00218   2.08877
   A12        2.10427  -0.00068   0.00160  -0.00281  -0.00122   2.10305
   A13        2.11125   0.00066   0.00015   0.00202   0.00218   2.11343
   A14        2.08749  -0.00292  -0.00162  -0.01822  -0.01984   2.06765
   A15        2.08445   0.00226   0.00147   0.01620   0.01766   2.10211
   A16        2.11126   0.00066   0.00014   0.00203   0.00217   2.11343
   A17        2.08741  -0.00291  -0.00161  -0.01816  -0.01977   2.06764
   A18        2.08452   0.00225   0.00147   0.01613   0.01760   2.10212
   A19        2.11495   0.00065  -0.00147   0.00422   0.00275   2.11770
   A20        2.09964  -0.00059  -0.00120  -0.00357  -0.00477   2.09487
   A21        2.06859  -0.00006   0.00267  -0.00065   0.00202   2.07061
   A22        2.11494   0.00065  -0.00147   0.00424   0.00276   2.11770
   A23        2.09971  -0.00060  -0.00120  -0.00362  -0.00482   2.09490
   A24        2.06854  -0.00006   0.00268  -0.00062   0.00205   2.07059
   A25        2.10917   0.00081  -0.00026   0.00318   0.00292   2.11209
[...]
 0.00000022,0.01983907,-0.06643391,-0.00000307,-0.00750306,-0.01431622,
 -0.00000057,0.08213003,0.01888040,-0.00000016,0.01744929,0.00935209,0.
 00000023,-0.02023286,0.01457869,0.00000053,0.00566233,0.00519635,0.000
 00016,-0.08590233,0.03523211,0.00000211,0.00673769,0.00286978,0.000000
 05,0.07810059,-0.31568187,-0.00001299,-0.00592953,0.00339003,0.0000002
 5,-0.03943247,-0.26740890,-0.00000832,-0.00029546,-0.00686551,-0.00000
 032,-0.02926517,0.67388703,-0.00000080,0.00000002,-0.00158337,0.000000
 83,-0.00000282,-0.00427797,-0.00000034,-0.00000067,0.00052986,0.000003
 99,0.00000036,0.00492331,0.00000079,0.00000043,-0.00029090,-0.00000081
 ,0.00000036,0.00742002,0.00000026,0.00000022,0.00020096,-0.00000357,0.
 00000156,0.00655437,0.00000031,0.00000014,-0.00015731,0.00000508,-0.00
 001368,-0.06175070,-0.00000027,0.00000017,-0.00043224,-0.00000059,-0.0
 0000767,-0.06267342,0.,-0.00000033,0.00028970,-0.00000720,0.00002497,0
 .13409988,-0.00160982,-0.00274065,-0.00000005,-0.00054182,-0.00028210,
 -0.00000001,0.00996455,-0.01393265,-0.00000070,-0.00522638,-0.00214497
 ,0.00000007,-0.12839370,0.12110793,0.00000639,-0.01061289,0.02912895,0
 .00000146,0.00044192,-0.00070373,-0.00000004,0.00032652,0.00000005,-0.
 00000001,0.00116045,-0.00150606,-0.00000011,0.00012271,0.00147794,0.00
 000007,0.00023779,-0.00013056,0.,-0.00015775,-0.00021136,0.,0.00005391
 ,0.00046877,0.00000002,-0.00056736,0.00009095,0.,0.13520357,-0.0041858
 1,-0.00235724,-0.00000023,-0.00078228,0.00027565,0.00000006,0.01564385
 ,-0.01869537,-0.00000111,-0.00093954,0.00156289,-0.00000035,0.12174489
 ,-0.26268958,-0.00001111,-0.00253370,0.00378930,0.,0.00137873,-0.00077
 881,-0.00000005,0.00017486,-0.00006941,0.00000003,0.00202839,0.0008947
 3,0.00000011,0.00007148,-0.00004585,-0.00000001,-0.00014142,0.00018127
 ,0.,-0.00013805,-0.00000592,0.,-0.00035944,0.00005694,0.00000001,0.000
 11327,0.00017446,0.00000004,-0.13061173,0.27716894,-0.00000012,-0.0000
 0025,0.00418555,-0.00000003,0.00000006,-0.00095396,0.00000059,-0.00000
 082,0.00272158,0.00000013,-0.00000035,0.01005723,0.00000643,-0.0000110
 6,-0.03705501,0.00000005,-0.00000036,0.00494969,0.00000005,-0.00000002
 ,-0.00006320,0.,0.00000004,-0.00078360,0.00000005,0.00000016,-0.002117
 60,0.,-0.00000004,0.00015334,0.,0.00000001,0.00002791,0.,0.,0.00016445
 ,-0.00000002,0.,-0.00017695,0.,0.00000004,-0.00080007,-0.00000701,0.00
 001235,0.02478207,-0.00054185,0.00028208,0.,-0.00161002,0.00274067,0.0
 0000018,-0.00522646,0.00214478,0.00000029,0.00996460,0.01393344,0.0000
 0053,-0.01061218,-0.02912938,-0.00000109,-0.12838665,-0.12110386,-0.00
 000418,0.00032652,-0.00000004,-0.00000002,0.00044194,0.00070376,0.0000
 0003,0.00012275,-0.00147794,-0.00000007,0.00116046,0.00150606,0.000000
 04,-0.00015776,0.00021135,0.00000001,0.00023778,0.00013057,0.,-0.00056
 735,-0.00009097,0.,0.00005392,-0.00046877,-0.00000002,0.00043931,0.000
 34867,-0.00000006,0.13519603,0.00078226,0.00027568,0.00000004,0.004185
 83,-0.00235703,-0.00000032,0.00093934,0.00156298,-0.00000036,-0.015643
 04,-0.01869537,-0.00000074,0.00253328,0.00378854,-0.00000007,-0.121740
 86,-0.26269629,-0.00000819,-0.00017484,-0.00006942,0.00000003,-0.00137
 870,-0.00077883,-0.00000002,-0.00007147,-0.00004589,0.,-0.00202838,0.0
 0089471,0.00000014,0.00013805,-0.00000591,0.,0.00014142,0.00018128,0.,
 -0.00011329,0.00017445,0.00000004,0.00035944,0.00005694,0.,-0.00034867
 ,0.00074332,0.00000028,0.13060750,0.27717611,0.00000002,0.00000005,-0.
 00095396,0.00000025,-0.00000031,0.00418555,0.00000023,-0.00000041,0.01
 005722,-0.00000075,-0.00000114,0.00272156,0.00000030,0.00000032,0.0049
 4970,-0.00000422,-0.00000816,-0.03705504,-0.00000002,0.00000004,-0.000
 78360,-0.00000007,-0.00000003,-0.00006320,0.,0.,0.00015334,-0.00000012
 ,0.00000013,-0.00211760,0.,-0.00000001,0.00016445,0.,0.,0.00002791,0.,
 0.00000004,-0.00080006,0.00000001,0.,-0.00017695,-0.00000009,0.0000002
 7,-0.00587262,0.00000436,0.00000922,0.02478211,0.01303076,-0.01335962,
 -0.00000072,-0.00035426,0.00144054,0.00000006,-0.00151324,-0.00324334,
 -0.00000005,0.00003696,0.00015844,0.,0.00056079,-0.00072592,-0.0000000
 4,0.00021479,-0.00005639,0.,-0.11514386,0.11287798,0.00000570,-0.00189
 474,-0.00120944,-0.00000004,-0.00081814,-0.00093700,-0.00000005,0.0001
 7642,0.00013032,0.,-0.00976985,0.02963484,0.00000149,-0.00009163,0.000
 06881,0.,-0.00573627,-0.00093545,0.00000012,-0.00000148,0.00014662,0.,
 -0.00013823,-0.00025503,0.,-0.00002441,0.00003009,0.,0.12666331,0.0142
 9617,-0.01836288,-0.00000111,0.00166917,0.00005840,0.00000009,-0.00416
 326,-0.00243902,-0.00000035,-0.00011333,-0.00011076,0.,0.00122204,-0.0
 0069790,-0.00000005,-0.00000217,-0.00007077,0.,0.11395242,-0.28077367,
 -0.00001235,0.00044500,-0.00078272,-0.00000001,-0.00095930,0.00025558,
 0.00000008,0.00013104,0.00007351,0.,-0.00209986,0.00240721,-0.00000006
 ,-0.00007475,0.00082826,0.00000006,-0.00010633,0.00191530,-0.00000027,
 0.00014541,0.00004517,0.,-0.00022747,-0.00037918,-0.00000002,-0.000056
 10,0.00002574,0.,-0.12462901,0.29543476,0.00000053,-0.00000078,0.00280
 540,0.00000003,0.00000012,-0.00282016,-0.00000007,-0.00000037,0.006501
 08,0.,0.,-0.00015631,0.00000005,-0.00000003,0.00007747,0.,0.,-0.000192
 73,0.00000569,-0.00001231,-0.03669826,0.00000005,-0.00000001,-0.000261
 39,-0.00000007,0.00000007,-0.00133879,0.,0.,0.00017113,0.00000012,-0.0
 0000045,0.00438441,0.,0.00000005,-0.00039732,0.00000015,-0.00000025,0.
 00835704,0.,0.,-0.00002481,0.,-0.00000002,0.00004802,0.,0.,0.00003625,
 -0.00000650,0.00001367,0.02357328,-0.00035418,-0.00144055,-0.00000011,
 0.01303079,0.01336049,0.00000049,0.00003696,-0.00015844,0.,-0.00151344
 ,0.00324337,0.00000023,0.00021479,0.00005640,0.,0.00056080,0.00072595,
 0.00000002,-0.00189475,0.00120941,0.00000008,-0.11513737,-0.11287317,-
 0.00000398,0.00017643,-0.00013032,0.,-0.00081820,0.00093697,0.00000004
 ,-0.00009163,-0.00006883,0.,-0.00976910,-0.02963519,-0.00000118,-0.000
 00147,-0.00014662,0.,-0.00573632,0.00093523,0.00000019,-0.00002441,-0.
 00003010,0.,-0.00013825,0.00025503,0.00000001,-0.00517341,0.00031449,0
 .00000009,0.12665621,-0.00166918,0.00005832,0.00000014,-0.01429530,-0.
 01836292,-0.00000078,0.00011333,-0.00011076,0.,0.00416328,-0.00243881,
 -0.00000044,0.00000218,-0.00007077,0.,-0.00122200,-0.00069792,-0.00000
 002,-0.00044503,-0.00078270,0.,-0.11394762,-0.28078005,-0.00000970,-0.
 00013103,0.00007350,0.,0.00095927,0.00025563,0.00000006,0.00007473,0.0
 0082826,0.00000005,0.00209952,0.00240643,-0.00000011,-0.00014541,0.000
 04516,0.,0.00010611,0.00191533,-0.00000027,0.00005610,0.00002574,0.,0.
 00022748,-0.00037917,-0.00000002,-0.00031468,0.00181948,0.00000004,0.1
 2462414,0.29544177,-0.00000009,0.00000014,-0.00282018,-0.00000076,-0.0
 0000106,0.00280541,0.,0.00000001,-0.00015631,0.00000023,-0.00000045,0.
 00650110,-0.00000001,0.,-0.00019274,-0.00000006,-0.00000005,0.00007747
 ,0.,-0.00000004,-0.00026139,-0.00000395,-0.00000970,-0.03669829,0.,0.,
 0.00017113,0.00000007,0.00000004,-0.00133879,0.,0.00000005,-0.00039732
 ,0.00000017,0.00000021,0.00438440,0.,0.,-0.00002481,0.00000016,-0.0000
 0026,0.00835701,0.,0.,0.00003625,0.00000001,-0.00000002,0.00004803,0.0
 0000004,0.00000004,0.00160001,0.00000426,0.00001078,0.02357330,-0.0052
 8767,-0.00144063,0.00000008,-0.00015676,0.00169081,0.00000008,-0.00998
 762,0.02831072,0.00000146,0.00008852,0.00022481,0.,0.00099726,0.002073
 37,0.00000004,0.00020169,-0.00045789,-0.00000002,-0.00093785,-0.000964
 45,-0.00000005,-0.00047009,-0.00025886,0.,-0.11906844,0.11404039,0.000
 00598,0.00006177,-0.00013623,0.,-0.00092655,-0.00334679,-0.00000004,-0
 .00003509,0.00011665,0.,0.01173365,-0.01563234,-0.00000081,-0.00003656
 ,0.00002475,0.,-0.00055573,-0.00144492,-0.00000005,-0.00002957,-0.0000
 1046,0.,0.00005825,0.00011549,0.,0.00002680,0.00001088,0.,0.12341570,-
 0.00031624,0.00165082,-0.00000019,-0.00046347,-0.00012708,0.,-0.001234
 72,0.00121518,-0.00000008,-0.00010518,0.00027015,0.00000001,-0.0017759
 5,0.00077126,0.00000021,0.00043951,0.00003806,0.,-0.00074974,0.0003867
 7,0.00000008,0.00010764,-0.00002768,0.,0.11439749,-0.27223908,-0.00001
 221,0.00007047,-0.00003493,0.,-0.00424907,-0.00292495,-0.00000045,-0.0
 0006593,-0.00003634,0.,0.01552626,-0.01764194,-0.00000117,0.00003399,0
 .00007772,0.,0.00035062,0.00014356,0.,0.00006386,0.00000469,0.,0.00008
 514,-0.00007284,0.00000004,-0.00001045,0.00000880,0.,-0.12245166,0.288
 98834,0.00000011,-0.00000018,0.00620681,-0.00000002,-0.00000003,0.0000
 4156,0.00000011,-0.00000043,0.00303926,0.,0.,0.00000103,-0.00000014,0.
 00000015,-0.00345464,0.,0.00000001,-0.00009778,-0.00000004,0.00000009,
 -0.00127191,0.00000001,0.,0.00013578,0.00000603,-0.00001219,-0.0368831
 7,0.,0.,-0.00001264,-0.00000007,-0.00000046,0.00816967,0.,0.,-0.000047
 01,0.00000060,-0.00000082,0.00417490,0.,0.,0.00001101,0.00000003,0.000
 00001,0.00029554,0.,0.,0.00019258,0.,0.00000004,-0.00097170,0.,0.,-0.0
 0000047,-0.00000657,0.00001360,0.02509469,-0.00015673,-0.00169081,-0.0
 0000007,-0.00528770,0.00144045,0.00000016,0.00008852,-0.00022481,-0.00
 000001,-0.00998682,-0.02831098,-0.00000118,0.00020169,0.00045789,0.000
 00002,0.00099727,-0.00207336,-0.00000013,-0.00047009,0.00025885,0.0000
 0002,-0.00093790,0.00096441,0.00000004,0.00006176,0.00013624,0.,-0.119
 06252,-0.11403648,-0.00000437,-0.00003509,-0.00011665,0.,-0.00092676,0
 .00334684,0.00000023,-0.00003656,-0.00002475,0.,0.01173363,0.01563315,
 0.00000065,-0.00002957,0.00001046,0.,-0.00055576,0.00144490,0.00000007
 ,0.00002680,-0.00001087,0.,0.00005825,-0.00011549,-0.00000001,-0.00003
 766,0.00000907,0.,0.12340927,0.00046347,-0.00012712,-0.00000001,0.0003
 1606,0.00165087,-0.00000020,0.00010517,0.00027015,0.00000001,0.0012344
 3,0.00121447,-0.00000010,-0.00043951,0.00003806,0.00000001,0.00177594,
 0.00077124,0.00000017,-0.00010765,-0.00002768,0.,0.00074971,0.00038682
 ,0.00000007,-0.00007047,-0.00003493,0.,-0.11439351,-0.27224504,-0.0000
 0992,0.00006593,-0.00003635,0.,0.00424912,-0.00292475,-0.00000055,-0.0
 0003400,0.00007772,0.,-0.01552546,-0.01764196,-0.00000085,-0.00006386,
 0.00000469,0.,-0.00035064,0.00014358,0.,0.00001045,0.00000880,0.,-0.00
 008513,-0.00007285,0.00000004,-0.00000908,0.00000982,0.,0.12244734,0.2
 8899477,0.00000002,0.,0.00004156,0.00000014,-0.00000022,0.00620682,0.,
 0.,0.00000103,0.00000020,0.00000018,0.00303925,-0.00000001,0.,-0.00009
 779,0.00000003,0.00000020,-0.00345465,0.,0.,0.00013578,0.00000002,0.00
 000007,-0.00127191,0.,0.,-0.00001264,-0.00000446,-0.00000993,-0.036883
 13,0.,0.,-0.00004701,0.00000027,-0.00000052,0.00816965,0.,0.,0.0000110
 1,-0.00000076,-0.00000115,0.00417489,0.,0.,0.00019258,-0.00000001,-0.0
 0000001,0.00029554,0.,0.,-0.00000047,-0.00000002,0.00000004,-0.0009717
 0,0.,0.,0.00002083,0.00000462,0.00001115,0.02509468,-0.00555291,0.0015
 0925,0.00000025,0.00027414,-0.00158569,-0.00000007,-0.00098406,0.00069
 826,0.00000003,-0.00043561,-0.00001487,0.,0.00036552,0.00007551,-0.000
 00001,-0.00021316,0.00022999,0.00000002,-0.01104163,-0.02827082,-0.000
 00111,-0.00008742,0.00001883,0.,-0.00063699,0.00336857,0.00000024,-0.0
 0010692,-0.00012515,0.,-0.13290595,-0.12336116,-0.00000449,0.00009482,
 0.00009323,0.,0.01162393,0.01405909,0.00000054,-0.00002825,-0.00010630
 ,0.,-0.00001826,-0.00006817,0.,-0.00000280,-0.00002015,0.,0.00049545,0
 .00028270,-0.00000005,-0.00000040,0.00001142,0.,0.00039467,0.00076959,
 0.00000003,-0.00005986,-0.00000885,0.,0.13833180,0.00107799,0.00169012
 ,-0.00000031,-0.00002061,0.00011132,-0.00000001,0.00104912,0.00036664,
 0.00000005,-0.00012402,0.00016014,0.00000003,-0.00019474,-0.00009406,0
 .00000004,0.00012266,-0.00003435,-0.00000001,0.00295119,0.00411026,-0.
 00000002,0.00001446,-0.00005245,0.,0.00398088,-0.00351737,-0.00000049,
 0.00008072,-0.00001347,0.,-0.12410025,-0.26290172,-0.00000865,-0.00006
 897,-0.00005735,0.,-0.01693488,-0.01716022,-0.00000070,-0.00004440,0.0
 0007371,0.,0.00003459,0.00004831,0.,-0.00001887,-0.00001287,0.,-0.0003
 2515,0.00079107,0.00000025,0.00001019,-0.00002773,0.,-0.00082870,-0.00
 099929,-0.00000004,-0.00000319,-0.00000463,0.,0.13294621,0.27693751,0.
 00000023,-0.00000033,0.00856892,0.,0.00000001,0.00034378,0.00000005,0.
 00000005,-0.00102171,0.,0.00000003,-0.00059619,-0.00000003,0.00000004,
 -0.00094525,0.,-0.00000001,0.00017714,0.00000033,0.00000040,0.00364974
 ,0.,0.,0.00011747,0.00000026,-0.00000049,0.00622770,0.,0.,-0.00004780,
 -0.00000454,-0.00000868,-0.03728600,0.,0.,-0.00007282,-0.00000087,-0.0
 0000107,0.00303220,0.,0.,0.00008021,0.,0.,0.00003074,0.,0.,0.00010104,
 -0.00000008,0.00000024,-0.00484144,0.,0.,0.00003395,-0.00000004,-0.000
 00006,0.00009461,0.,0.,-0.00002601,0.00000471,0.00000971,0.02550720,0.
 00027410,0.00158570,0.00000007,-0.00555285,-0.00150944,0.00000007,-0.0
 0043562,0.00001486,0.,-0.00098402,-0.00069830,-0.00000003,-0.00021315,
 -0.00023000,0.,0.00036551,-0.00007550,-0.00000002,-0.00008742,-0.00001
 883,0.,-0.01104235,0.02827044,0.00000143,-0.00010692,0.00012515,0.,-0.
 00063679,-0.00336849,-0.00000009,0.00009482,-0.00009322,0.,-0.13291250
 ,0.12336474,0.00000665,-0.00002826,0.00010630,0.,0.01162387,-0.0140582
 9,-0.00000073,-0.00000281,0.00002015,0.,-0.00001826,0.00006816,0.,-0.0
 0000040,-0.00001141,0.,0.00049545,-0.00028271,-0.00000007,-0.00005986,
 0.00000885,0.,0.00039467,-0.00076955,-0.00000004,-0.00002961,-0.000009
 56,0.,0.13833889,0.00002062,0.00011137,-0.00000001,-0.00107818,0.00169
 004,-0.00000028,0.00012400,0.00016015,0.00000003,-0.00104916,0.0003665
 9,0.00000007,-0.00012267,-0.00003436,0.,0.00019475,-0.00009405,0.00000
 004,-0.00001446,-0.00005245,0.,-0.00295160,0.00411093,0.00000005,-0.00
 008072,-0.00001347,0.,-0.00398080,-0.00351755,-0.00000040,0.00006897,-
 0.00005735,0.,0.12410389,-0.26289558,-0.00001141,0.00004440,0.00007372
 ,0.,0.01693566,-0.01716010,-0.00000107,0.00001887,-0.00001287,0.,-0.00
 003460,0.00004831,0.,-0.00001019,-0.00002773,0.,0.00032513,0.00079107,
 0.00000024,0.00000319,-0.00000463,0.,0.00082873,-0.00099929,-0.0000000
 6,0.00000956,0.00000480,0.,-0.13295008,0.27693080,0.,-0.00000003,0.000
 34378,0.00000007,-0.00000028,0.00856890,0.,0.00000003,-0.00059619,-0.0
 0000006,0.00000006,-0.00102171,0.,0.,0.00017714,0.,0.00000004,-0.00094
 525,0.,0.,0.00011747,0.,-0.00000023,0.00364973,0.,0.,-0.00004780,-0.00
 000010,-0.00000042,0.00622773,0.,0.,-0.00007282,0.00000669,-0.00001143
 ,-0.03728594,0.,0.,0.00008021,0.00000068,-0.00000075,0.00303219,0.,0.,
 0.00010104,0.,0.,0.00003074,0.,0.,0.00003395,-0.00000004,0.00000024,-0
 .00484142,0.,0.,-0.00002601,0.00000003,-0.00000004,0.00009461,0.,0.,0.
 00000123,-0.00000724,0.00001265,0.02550714,0.00070845,-0.00003243,-0.0
 0000002,-0.00001438,-0.00000251,-0.00000001,0.00080646,-0.00305785,-0.
 00000003,0.00006159,-0.00005897,0.,-0.00065037,0.00050988,0.00000003,-
 0.00012297,-0.00038239,-0.00000002,0.00076174,0.00310577,0.00000021,-0
 .00003555,0.00005726,0.,-0.01170308,0.00368411,0.00000036,-0.00002075,
 0.00000071,0.,-0.01012189,-0.00319548,0.00000002,-0.00000955,0.0000207
 2,0.,-0.33757412,0.00601697,0.00000427,0.00001318,-0.00000224,0.,0.000
 01496,-0.00003696,0.,-0.00008695,0.00000760,0.,-0.00062810,-0.00015826
 ,0.,0.00002450,-0.00003821,0.,0.00061107,-0.00044576,-0.00000009,0.000
 00009,-0.00000569,0.,0.00053076,0.00041052,-0.00000003,-0.00000725,0.0
 0000520,0.,0.35745626,-0.00044957,-0.00141040,-0.00000002,0.00034051,0
 .00015962,0.00000005,-0.00250242,-0.00464484,-0.00000057,0.00022129,-0
 .00029936,-0.00000002,-0.00093315,0.00078135,0.00000004,-0.00042486,-0
 .00029492,0.00000002,0.00246258,-0.00473474,-0.00000053,-0.00009754,-0
 .00001467,0.,-0.02767418,0.00575001,0.00000045,-0.00010816,0.00009046,
 0.,0.02785281,0.00483228,-0.00000028,0.00008661,0.00013480,0.,0.006505
 22,-0.05892140,-0.00000101,0.00001619,-0.00011760,0.,0.00002536,-0.000
 03720,0.,-0.00014367,0.00000165,0.,0.00138211,-0.00002701,-0.00000002,
 -0.00003587,0.00008123,0.,0.00037921,0.00054130,0.00000023,0.00000824,
 0.00000230,0.,-0.00051189,0.00058109,0.00000018,-0.00000084,0.00000054
 ,0.,-0.00640000,0.05753795,-0.00000005,-0.00000004,-0.00087843,0.,0.00
 000005,-0.00096483,-0.00000003,-0.00000056,0.00872766,0.00000001,-0.00
 000002,0.00016459,-0.00000003,0.00000002,0.00018786,-0.00000003,0.0000
 0001,-0.00051011,0.00000019,-0.00000053,0.00624742,0.,0.,0.00000270,-0
 .00000104,0.00000005,0.00374244,0.,0.,0.00003129,0.00000140,0.00000015
 ,0.00285212,0.,0.,-0.00005755,0.00000429,-0.00000104,-0.03749929,0.,0.
 ,-0.00000638,0.,0.,0.00009023,0.,0.,-0.00001320,0.00000007,0.,0.000021
 98,0.,0.,0.00009337,-0.00000005,0.00000024,-0.00471579,0.,0.,0.0000028
 6,-0.00000007,0.00000016,-0.00313222,0.,0.,0.00000353,-0.00000468,0.00
 000149,0.02558212,-0.00001437,0.00000250,0.,0.00070843,0.00003249,-0.0
 0000001,0.00006160,0.00005898,0.,0.00080629,0.00305802,0.00000020,-0.0
 0012299,0.00038240,0.00000001,-0.00065039,-0.00050993,-0.00000001,-0.0
 0003555,-0.00005727,0.,0.00076191,-0.00310562,-0.00000010,-0.00002075,
 -0.00000071,0.,-0.01170379,-0.00368459,-0.00000003,-0.00000954,-0.0000
 2072,0.,-0.01012119,0.00319505,0.00000026,0.00001318,0.00000224,0.,-0.
 33757386,-0.00602505,0.00000224,-0.00008695,-0.00000760,0.,0.00001495,
 0.00003696,0.,0.00002450,0.00003821,0.,-0.00062806,0.00015824,0.000000
 01,0.00000009,0.00000569,0.,0.00061107,0.00044576,-0.00000003,-0.00000
 725,-0.00000520,0.,0.00053076,-0.00041052,-0.00000004,-0.00001410,0.00
 000201,0.,0.35745601,-0.00034052,0.00015961,0.00000005,0.00044963,-0.0
 0141039,-0.00000003,-0.00022128,-0.00029936,-0.00000002,0.00250258,-0.
 00464470,-0.00000062,0.00042487,-0.00029490,0.,0.00093311,0.00078137,0
 .00000002,0.00009754,-0.00001467,0.,-0.00246243,-0.00473489,-0.0000004
 7,0.00010816,0.00009047,0.,0.02767373,0.00575067,-0.00000015,-0.000086
 62,0.00013480,0.,-0.02785322,0.00483161,0.00000032,-0.00001618,-0.0001
 1760,0.,-0.00651335,-0.05892175,-0.00000092,0.00014366,0.00000165,0.,-
 0.00002536,-0.00003720,0.,0.00003587,0.00008123,0.,-0.00138213,-0.0000
 2705,0.00000002,-0.00000825,0.00000230,0.,-0.00037920,0.00054130,0.000
 00024,0.00000084,0.00000054,0.,0.00051190,0.00058110,0.00000017,-0.000
 00201,0.00000754,0.,0.00640866,0.05753832,-0.00000004,0.00000005,-0.00
 096484,0.00000002,-0.00000005,-0.00087843,-0.00000001,-0.00000003,0.00
 016459,0.00000022,-0.00000062,0.00872765,0.00000002,0.,-0.00051011,0.0
 0000004,0.00000004,0.00018786,0.,0.,0.00000270,-0.00000008,-0.00000046
 ,0.00624745,0.,0.,0.00003129,0.00000135,0.00000013,0.00374245,0.,0.000
 00001,-0.00005755,-0.00000110,0.00000010,0.00285212,0.,0.,-0.00000638,
 0.00000220,-0.00000098,-0.03749929,0.,0.,-0.00001320,0.,0.,0.00009023,
 0.,0.,0.00009337,-0.00000006,0.,0.00002199,0.,0.,0.00000286,-0.0000000
 6,0.00000024,-0.00471578,0.,0.,0.00000353,-0.00000001,0.00000017,-0.00
 313224,0.,0.,0.00002762,-0.00000250,0.00000140,0.02558211\\-0.00003935
 ,-0.00000699,-0.00000001,0.00003955,-0.00000821,0.00000003,-0.00011503
 ,0.00005105,0.00000002,0.00011502,0.00005143,0.00000002,0.00009903,-0.
 00000924,0.00000005,-0.00009864,-0.00000955,-0.00000004,0.00000869,0.0
 0000749,-0.00000009,-0.00000933,0.00000808,-0.00000008,0.00004231,-0.0
 0007965,0.00000001,-0.00004273,-0.00007906,-0.00000005,-0.00002942,-0.
 00002729,0.00000004,0.00003015,-0.00002704,0.00000005,-0.00001374,-0.0
 0000198,-0.00000002,0.00001358,-0.00000270,-0.00000002,-0.00001874,0.0
 0000940,-0.00000004,0.00001869,0.00000959,-0.00000006,0.00000550,0.000
 00098,0.00000006,-0.00000545,0.00000093,0.00000006,0.00001692,0.000037
 04,0.,-0.00001676,0.00003699,0.00000007,0.00000853,0.00000603,-0.00000
 002,-0.00000873,0.00000604,-0.00000004,0.00001346,0.00001326,0.0000000
 2,-0.00001352,0.00001340,0.00000004\\\@


 ART, GLORY, FREEDOM FAIL, BUT NATURE STILL IS FAIR.

                                           -- BYRON
 Job cpu time:       0 days  4 hours 52 minutes 16.7 seconds.
 Elapsed time:       0 days  0 hours 18 minutes 27.8 seconds.
 File lengths (MBytes):  RWF=    300 Int=      0 D2E=      0 Chk=     13 Scr=      1
 Normal termination of Gaussian 16 at Sun Sep 21 10:31:22 2025.
