 Entering Gaussian System, Link 0=g16
 Input=PPAC0147.gjf
 Output=PPAC0147.log
 Initial command:
 /usr/local/g16/l1.exe "/dados_01/scratch/Gau-2190213.inp" -scrdir="/dados_01/scratch/"
 Entering Link 1 = /usr/local/g16/l1.exe PID=   2190214.
  
 Copyright (c) 1988-2017, Gaussian, Inc.  All Rights Reserved.
  
 This is part of the Gaussian(R) 16 program.  It is based on
 the Gaussian(R) 09 system (copyright 2009, Gaussian, Inc.),
 the Gaussian(R) 03 system (copyright 2003, Gaussian, Inc.),
 the Gaussian(R) 98 system (copyright 1998, Gaussian, Inc.),
 the Gaussian(R) 94 system (copyright 1995, Gaussian, Inc.),
 the Gaussian 92(TM) system (copyright 1992, Gaussian, Inc.),
 the Gaussian 90(TM) system (copyright 1990, Gaussian, Inc.),
 the Gaussian 88(TM) system (copyright 1988, Gaussian, Inc.),
 the Gaussian 86(TM) system (copyright 1986, Carnegie Mellon
 University), and the Gaussian 82(TM) system (copyright 1983,
 Carnegie Mellon University). Gaussian is a federally registered
 trademark of Gaussian, Inc.
  
 This software contains proprietary and confidential information,
 including trade secrets, belonging to Gaussian, Inc.
  
 This software is provided under written license and may be
 used, copied, transmitted, or stored only in accord with that
 written license.
  
 The following legend is applicable only to US Government
 contracts under FAR:
  
                    RESTRICTED RIGHTS LEGEND
  
 Use, reproduction and disclosure by the US Government is
 subject to restrictions as set forth in subparagraphs (a)
 and (c) of the Commercial Computer Software - Restricted
 Rights clause in FAR 52.227-19.
  
 Gaussian, Inc.
 340 Quinnipiac St., Bldg. 40, Wallingford CT 06492
  
  
 ---------------------------------------------------------------
 Warning -- This program may not be used in any manner that
 competes with the business of Gaussian, Inc. or will provide
 assistance to any competitor of Gaussian, Inc.  The licensee
 of this program is prohibited from giving any competitor of
 Gaussian, Inc. access to this program.  By using this program,
 the user acknowledges that Gaussian, Inc. is engaged in the
 business of creating and licensing software in the field of
 computational chemistry and represents and warrants to the
 licensee that it is not a competitor of Gaussian, Inc. and that
 it will not use this program in any manner prohibited above.
 ---------------------------------------------------------------
  

 Cite this work as:
 Gaussian 16, Revision B.01,
 M. J. Frisch, G. W. Trucks, H. B. Schlegel, G. E. Scuseria, 
 M. A. Robb, J. R. Cheeseman, G. Scalmani, V. Barone, 
 G. A. Petersson, H. Nakatsuji, X. Li, M. Caricato, A. V. Marenich, 
 J. Bloino, B. G. Janesko, R. Gomperts, B. Mennucci, H. P. Hratchian, 
 J. V. Ortiz, A. F. Izmaylov, J. L. Sonnenberg, D. Williams-Young, 
 F. Ding, F. Lipparini, F. Egidi, J. Goings, B. Peng, A. Petrone, 
 T. Henderson, D. Ranasinghe, V. G. Zakrzewski, J. Gao, N. Rega, 
 G. Zheng, W. Liang, M. Hada, M. Ehara, K. Toyota, R. Fukuda, 
 J. Hasegawa, M. Ishida, T. Nakajima, Y. Honda, O. Kitao, H. Nakai, 
 T. Vreven, K. Throssell, J. A. Montgomery, Jr., J. E. Peralta, 
 F. Ogliaro, M. J. Bearpark, J. J. Heyd, E. N. Brothers, K. N. Kudin, 
 V. N. Staroverov, T. A. Keith, R. Kobayashi, J. Normand, 
 K. Raghavachari, A. P. Rendell, J. C. Burant, S. S. Iyengar, 
 J. Tomasi, M. Cossi, J. M. Millam, M. Klene, C. Adamo, R. Cammi, 
 J. W. Ochterski, R. L. Martin, K. Morokuma, O. Farkas, 
 J. B. Foresman, and D. J. Fox, Gaussian, Inc., Wallingford CT, 2016.
 
 ******************************************
 Gaussian 16:  ES64L-G16RevB.01 20-Dec-2017
                21-Sep-2025 
 ******************************************
 %nprocs=16
 Will use up to   16 processors via shared memory.
 %mem=40GB
 %chk=PPAC0147.chk
 ----------------------------------------------------------------------
 # opt freq=noraman M08HX/6-311++G** scf=xqc Empiricaldispersion=pfd In
 t(Grid=ultraFine)
 ----------------------------------------------------------------------
 1/18=20,19=15,26=4,38=1/1,3;
 2/9=110,12=2,17=6,18=5,40=1/2;
 3/5=4,6=6,7=1111,11=2,25=1,30=1,71=1,74=-74,75=-5,124=11/1,2,3;
 4//1;
 5/5=2,8=3,13=1,38=5/2,8;
 6/7=2,8=2,9=2,10=2,28=1/1;
 7//1,2,3,16;
 1/18=20,19=15,26=4/3(2);
 2/9=110/2;
 99//99;
 2/9=110/2;
 3/5=4,6=6,7=1111,11=2,25=1,30=1,71=1,74=-74,75=-5,124=11/1,2,3;
 4/5=5,16=3,69=1/1;
 5/5=2,8=3,13=1,38=5/2,8;
 7//1,2,3,16;
 1/18=20,19=15,26=4/3(-5);
 2/9=110/2;
 6/7=2,8=2,9=2,10=2,19=2,28=1/1;
 99/9=1/99;
 --------
 PPAC0147
 --------
 Symbolic Z-matrix:
 Charge =  0 Multiplicity = 1
 O                    -0.0001    0.6157   -0.0052 
 O                     1.2997   -1.3084   -0.0017 
 O                    -1.2997   -1.3085   -0.0034 
 C                     2.3197    0.8933   -0.0057 
 C                    -2.3197    0.8932   -0.0058 
 C                     1.1718   -0.092    -0.0035 
 C                    -1.1718   -0.092    -0.005 
 C                     3.6706    0.1994    0.0146 
 C                    -3.6706    0.1994    0.0157 
 H                     2.2436    1.512    -0.9062 
 H                     2.2291    1.5332    0.8784 
 H                    -2.2443    1.5122   -0.9061 
 H                    -2.2282    1.5329    0.8785 
 H                     4.4784    0.9375    0.0142 
 H                     3.7951   -0.4448   -0.8622 
 H                     3.7782   -0.4257    0.9073 
 H                    -3.7775   -0.4259    0.9083 
 H                    -4.4783    0.9378    0.0163 
 H                    -3.796    -0.4446   -0.8611 
 

 GradGradGradGradGradGradGradGradGradGradGradGradGradGradGradGradGradGrad
 Berny optimization.
 Initialization pass.
                           ----------------------------
                           !    Initial Parameters    !
                           ! (Angstroms and Degrees)  !
 --------------------------                            --------------------------
 ! Name  Definition              Value          Derivative Info.                !
 --------------------------------------------------------------------------------
 ! R1    R(1,6)                  1.369          estimate D2E/DX2                !
 ! R2    R(1,7)                  1.3688         estimate D2E/DX2                !
 ! R3    R(2,6)                  1.2231         estimate D2E/DX2                !
 ! R4    R(3,7)                  1.2232         estimate D2E/DX2                !
 ! R5    R(4,6)                  1.5128         estimate D2E/DX2                !
 ! R6    R(4,8)                  1.5188         estimate D2E/DX2                !
 ! R7    R(4,10)                 1.0952         estimate D2E/DX2                !
 ! R8    R(4,11)                 1.0951         estimate D2E/DX2                !
 ! R9    R(5,7)                  1.5127         estimate D2E/DX2                !
 ! R10   R(5,9)                  1.5188         estimate D2E/DX2                !
 ! R11   R(5,12)                 1.0952         estimate D2E/DX2                !
 ! R12   R(5,13)                 1.0953         estimate D2E/DX2                !
 ! R13   R(8,14)                 1.0942         estimate D2E/DX2                !
 ! R14   R(8,15)                 1.0951         estimate D2E/DX2                !
 ! R15   R(8,16)                 1.0951         estimate D2E/DX2                !
 ! R16   R(9,17)                 1.0951         estimate D2E/DX2                !
 ! R17   R(9,18)                 1.0944         estimate D2E/DX2                !
 ! R18   R(9,19)                 1.0951         estimate D2E/DX2                !
 ! A1    A(6,1,7)              117.7408         estimate D2E/DX2                !
 ! A2    A(6,4,8)              112.1679         estimate D2E/DX2                !
 ! A3    A(6,4,10)             108.446          estimate D2E/DX2                !
 ! A4    A(6,4,11)             108.4589         estimate D2E/DX2                !
 ! A5    A(8,4,10)             109.3223         estimate D2E/DX2                !
 ! A6    A(8,4,11)             109.2533         estimate D2E/DX2                !
 ! A7    A(10,4,11)            109.1438         estimate D2E/DX2                !
 ! A8    A(7,5,9)              112.1746         estimate D2E/DX2                !
 ! A9    A(7,5,12)             108.4394         estimate D2E/DX2                !
 ! A10   A(7,5,13)             108.4556         estimate D2E/DX2                !
 ! A11   A(9,5,12)             109.3336         estimate D2E/DX2                !
 ! A12   A(9,5,13)             109.2496         estimate D2E/DX2                !
 ! A13   A(12,5,13)            109.1389         estimate D2E/DX2                !
 ! A14   A(1,6,2)              127.1298         estimate D2E/DX2                !
 ! A15   A(1,6,4)              108.2313         estimate D2E/DX2                !
 ! A16   A(2,6,4)              124.6388         estimate D2E/DX2                !
 ! A17   A(1,7,3)              127.1336         estimate D2E/DX2                !
 ! A18   A(1,7,5)              108.23           estimate D2E/DX2                !
 ! A19   A(3,7,5)              124.6364         estimate D2E/DX2                !
 ! A20   A(4,8,14)             110.3917         estimate D2E/DX2                !
 ! A21   A(4,8,15)             111.049          estimate D2E/DX2                !
 ! A22   A(4,8,16)             111.0433         estimate D2E/DX2                !
 ! A23   A(14,8,15)            108.2146         estimate D2E/DX2                !
 ! A24   A(14,8,16)            108.2281         estimate D2E/DX2                !
 ! A25   A(15,8,16)            107.8013         estimate D2E/DX2                !
 ! A26   A(5,9,17)             111.0518         estimate D2E/DX2                !
 ! A27   A(5,9,18)             110.3805         estimate D2E/DX2                !
 ! A28   A(5,9,19)             111.0483         estimate D2E/DX2                !
 ! A29   A(17,9,18)            108.2274         estimate D2E/DX2                !
 ! A30   A(17,9,19)            107.7971         estimate D2E/DX2                !
 ! A31   A(18,9,19)            108.2231         estimate D2E/DX2                !
 ! D1    D(7,1,6,2)             -0.005          estimate D2E/DX2                !
 ! D2    D(7,1,6,4)            179.9357         estimate D2E/DX2                !
 ! D3    D(6,1,7,3)              0.0029         estimate D2E/DX2                !
 ! D4    D(6,1,7,5)            179.9499         estimate D2E/DX2                !
 ! D5    D(8,4,6,1)            179.2415         estimate D2E/DX2                !
 ! D6    D(8,4,6,2)             -0.816          estimate D2E/DX2                !
 ! D7    D(10,4,6,1)           -59.9252         estimate D2E/DX2                !
 ! D8    D(10,4,6,2)           120.0174         estimate D2E/DX2                !
 ! D9    D(11,4,6,1)            58.4857         estimate D2E/DX2                !
 ! D10   D(11,4,6,2)          -121.5718         estimate D2E/DX2                !
 ! D11   D(6,4,8,14)          -179.905          estimate D2E/DX2                !
 ! D12   D(6,4,8,15)            60.07           estimate D2E/DX2                !
 ! D13   D(6,4,8,16)           -59.8669         estimate D2E/DX2                !
 ! D14   D(10,4,8,14)           59.7689         estimate D2E/DX2                !
 ! D15   D(10,4,8,15)          -60.2561         estimate D2E/DX2                !
 ! D16   D(10,4,8,16)          179.807          estimate D2E/DX2                !
 ! D17   D(11,4,8,14)          -59.6093         estimate D2E/DX2                !
 ! D18   D(11,4,8,15)         -179.6343         estimate D2E/DX2                !
 ! D19   D(11,4,8,16)           60.4288         estimate D2E/DX2                !
 ! D20   D(9,5,7,1)           -179.1306         estimate D2E/DX2                !
 ! D21   D(9,5,7,3)              0.8181         estimate D2E/DX2                !
 ! D22   D(12,5,7,1)            60.0221         estimate D2E/DX2                !
 ! D23   D(12,5,7,3)          -120.0293         estimate D2E/DX2                !
 ! D24   D(13,5,7,1)           -58.3774         estimate D2E/DX2                !
 ! D25   D(13,5,7,3)           121.5713         estimate D2E/DX2                !
 ! D26   D(7,5,9,17)            59.8691         estimate D2E/DX2                !
 ! D27   D(7,5,9,18)           179.9045         estimate D2E/DX2                !
 ! D28   D(7,5,9,19)           -60.0677         estimate D2E/DX2                !
 ! D29   D(12,5,9,17)         -179.8011         estimate D2E/DX2                !
 ! D30   D(12,5,9,18)          -59.7656         estimate D2E/DX2                !
 ! D31   D(12,5,9,19)           60.2621         estimate D2E/DX2                !
 ! D32   D(13,5,9,17)          -60.4243         estimate D2E/DX2                !
 ! D33   D(13,5,9,18)           59.6112         estimate D2E/DX2                !
 ! D34   D(13,5,9,19)          179.6389         estimate D2E/DX2                !
 --------------------------------------------------------------------------------
 Trust Radius=3.00D-01 FncErr=1.00D-07 GrdErr=1.00D-06 EigMax=2.50D+02 EigMin=1.00D-04
 Number of steps in this run=     93 maximum allowed number of steps=    114.
 GradGradGradGradGradGradGradGradGradGradGradGradGradGradGradGradGradGrad

                          Input orientation:                          
 ---------------------------------------------------------------------
 Center     Atomic      Atomic             Coordinates (Angstroms)
 Number     Number       Type             X           Y           Z
 ---------------------------------------------------------------------
      1          8           0       -0.000100    0.615700   -0.005200
      2          8           0        1.299700   -1.308400   -0.001700
      3          8           0       -1.299700   -1.308500   -0.003400
      4          6           0        2.319700    0.893300   -0.005700
      5          6           0       -2.319700    0.893200   -0.005800
      6          6           0        1.171800   -0.092000   -0.003500
      7          6           0       -1.171800   -0.092000   -0.005000
      8          6           0        3.670600    0.199400    0.014600
      9          6           0       -3.670600    0.199400    0.015700
     10          1           0        2.243600    1.512000   -0.906200
     11          1           0        2.229100    1.533200    0.878400
     12          1           0       -2.244300    1.512200   -0.906100
     13          1           0       -2.228200    1.532900    0.878500
     14          1           0        4.478400    0.937500    0.014200
     15          1           0        3.795100   -0.444800   -0.862200
     16          1           0        3.778200   -0.425700    0.907300
     17          1           0       -3.777500   -0.425900    0.908300
     18          1           0       -4.478300    0.937800    0.016300
     19          1           0       -3.796000   -0.444600   -0.861100
 ---------------------------------------------------------------------
                    Distance matrix (angstroms):
                    1          2          3          4          5
     1  O    0.000000
     2  O    2.321993   0.000000
     3  O    2.321962   2.599401   0.000000
     4  C    2.336351   2.426499   4.236506   0.000000
     5  C    2.336140   4.236404   2.426497   4.639400   0.000000
     6  C    1.369011   1.223107   2.754666   1.512777   3.627836
     7  C    1.368839   2.754624   1.223206   3.627863   1.512711
     8  C    3.694284   2.809785   5.194032   1.518829   6.030379
     9  C    3.694092   5.194001   2.809857   6.030394   1.518799
    10  H    2.578632   3.108653   4.617926   1.095208   4.692264
    11  H    2.567467   3.116577   4.615762   1.095132   4.677926
    12  H    2.579102   4.618837   3.108615   4.692958   1.095165
    13  H    2.566439   4.614522   3.116635   4.676996   1.095251
    14  H    4.490088   3.892101   6.199296   2.159244   6.798274
    15  H    4.032698   2.777280   5.238368   2.168158   6.317788
    16  H    4.024018   2.783595   5.233907   2.168076   6.305365
    17  H    4.023452   5.233055   2.783823   6.304882   2.168129
    18  H    4.489820   6.199276   3.892268   6.798181   2.159174
    19  H    4.033071   5.239358   2.777316   6.318502   2.168112
                    6          7          8          9         10
     6  C    0.000000
     7  C    2.343600   0.000000
     8  C    2.515799   4.851199   0.000000
     9  C    4.851198   2.515819   7.341200   0.000000
    10  H    2.129892   3.879425   2.146420   6.127853   0.000000
    11  H    2.130001   3.871407   2.145482   6.109806   1.784785
    12  H    3.880449   2.129717   6.128391   2.146507   4.487900
    13  H    3.870171   2.129989   6.109041   2.145499   4.814830
    14  H    3.463205   5.743257   1.094227   8.182359   2.484254
    15  H    2.782721   5.052658   1.095113   7.544692   2.497630
    16  H    2.781049   5.044417   1.095099   7.527969   3.065691
    17  H    5.043653   2.781237   7.527542   1.095063   6.580388
    18  H    5.743214   3.463219   8.182286   1.094356   6.809159
    19  H    5.053597   2.782743   7.545310   1.095098   6.348786
                   11         12         13         14         15
    11  H    0.000000
    12  H    4.816242   0.000000
    13  H    4.457300   1.784793   0.000000
    14  H    2.482146   6.809694   6.788225   0.000000
    15  H    3.065049   6.348711   6.574304   1.773620   0.000000
    16  H    2.497566   6.581366   6.317736   1.773759   1.769684
    17  H    6.318086   3.065776   2.497622   8.415353   7.776844
    18  H    6.788736   2.484253   2.482032   8.956700   8.434008
    19  H    6.575666   2.497772   3.065079   8.434574   7.591100
                   16         17         18         19
    16  H    0.000000
    17  H    7.555700   0.000000
    18  H    8.415629   1.773827   0.000000
    19  H    7.777924   1.769596   1.773808   0.000000
 Stoichiometry    C6H10O3
 Framework group  C1[X(C6H10O3)]
 Deg. of freedom    51
 Full point group                 C1      NOp   1
 Largest Abelian subgroup         C1      NOp   1
 Largest concise Abelian subgroup C1      NOp   1
                         Standard orientation:                         
 ---------------------------------------------------------------------
 Center     Atomic      Atomic             Coordinates (Angstroms)
 Number     Number       Type             X           Y           Z
 ---------------------------------------------------------------------
      1          8           0        0.000087   -0.583948   -0.005621
      2          8           0       -1.299705    1.340158   -0.002904
      3          8           0        1.299695    1.340247   -0.004670
      4          6           0       -2.319714   -0.861539   -0.005945
      5          6           0        2.319686   -0.861458   -0.006161
      6          6           0       -1.171810    0.123757   -0.004192
      7          6           0        1.171790    0.123747   -0.005751
      8          6           0       -3.670610   -0.167625    0.014095
      9          6           0        3.670590   -0.167654    0.015010
     10          1           0       -2.243639   -1.480621   -0.906184
     11          1           0       -2.229094   -1.501064    0.878424
     12          1           0        2.244261   -1.480839   -0.906197
     13          1           0        2.228206   -1.500782    0.878412
     14          1           0       -4.478413   -0.905722    0.014028
     15          1           0       -3.795130    0.476204   -0.862975
     16          1           0       -3.778185    0.457854    0.906532
     17          1           0        3.777515    0.458024    0.907342
     18          1           0        4.478287   -0.906057    0.015903
     19          1           0        3.795970    0.475973   -0.862066
 ---------------------------------------------------------------------
 Rotational constants (GHZ):           5.0856460           0.7608109           0.6730442
 Standard basis: 6-311++G(d,p) (5D, 7F)
 There are   277 symmetry adapted cartesian basis functions of A   symmetry.
 There are   268 symmetry adapted basis functions of A   symmetry.
   268 basis functions,   414 primitive gaussians,   277 cartesian basis functions
    35 alpha electrons       35 beta electrons
       nuclear repulsion energy       455.0870266056 Hartrees.
 NAtoms=   19 NActive=   19 NUniq=   19 SFac= 1.00D+00 NAtFMM=   60 NAOKFM=F Big=F
 Integral buffers will be    131072 words long.
 Raffenetti 2 integral format.
 Two-electron integral symmetry is turned on.
 R6APFD:  NTU= -4 IXU= 1 FactS= 1.050
 Nuclear repulsion after empirical dispersion term =      455.0740513322 Hartrees.
 One-electron integrals computed using PRISM.
 NBasis=   268 RedAO= T EigKep=  9.03D-06  NBF=   268
 NBsUse=   268 1.00D-06 EigRej= -1.00D+00 NBFU=   268
 ExpMin= 3.60D-02 ExpMax= 8.59D+03 ExpMxC= 1.30D+03 IAcc=3 IRadAn=         5 AccDes= 0.00D+00
 Harris functional with IExCor= 1009 and IRadAn=       5 diagonalized for initial guess.
 HarFok:  IExCor= 1009 AccDes= 0.00D+00 IRadAn=         5 IDoV= 1 UseB2=F ITyADJ=14
 ICtDFT=  3500011 ScaDFX=  1.000000  1.000000  1.000000  1.000000
 FoFCou: FMM=F IPFlag=           0 FMFlag=      100000 FMFlg1=           0
         NFxFlg=           0 DoJE=T BraDBF=F KetDBF=T FulRan=T
         wScrn=  0.000000 ICntrl=       500 IOpCl=  0 I1Cent=   200000004 NGrid=           0
         NMat0=    1 NMatS0=      1 NMatT0=    0 NMatD0=    1 NMtDS0=    0 NMtDT0=    0
 Petite list used in FoFCou.
 Requested convergence on RMS density matrix=1.00D-08 within  32 cycles.
 Requested convergence on MAX density matrix=1.00D-06.
 Requested convergence on             energy=1.00D-06.
 No special actions if energy rises.
 SCF Done:  E(RM08HX) =  -460.335451669     A.U. after   13 cycles
            NFock= 13  Conv=0.64D-08     -V/T= 2.0045
 QCSCF skips out because SCF is already converged.

 **********************************************************************

            Population analysis using the SCF Density.

 **********************************************************************

 Orbital symmetries:
       Occupied  (A) (A) (A) (A) (A) (A) (A) (A) (A) (A) (A) (A)
                 (A) (A) (A) (A) (A) (A) (A) (A) (A) (A) (A) (A)
                 (A) (A) (A) (A) (A) (A) (A) (A) (A) (A) (A)
       Virtual   (A) (A) (A) (A) (A) (A) (A) (A) (A) (A) (A) (A)
                 (A) (A) (A) (A) (A) (A) (A) (A) (A) (A) (A) (A)
                 (A) (A) (A) (A) (A) (A) (A) (A) (A) (A) (A) (A)
                 (A) (A) (A) (A) (A) (A) (A) (A) (A) (A) (A) (A)
                 (A) (A) (A) (A) (A) (A) (A) (A) (A) (A) (A) (A)
                 (A) (A) (A) (A) (A) (A) (A) (A) (A) (A) (A) (A)
                 (A) (A) (A) (A) (A) (A) (A) (A) (A) (A) (A) (A)
                 (A) (A) (A) (A) (A) (A) (A) (A) (A) (A) (A) (A)
                 (A) (A) (A) (A) (A) (A) (A) (A) (A) (A) (A) (A)
                 (A) (A) (A) (A) (A) (A) (A) (A) (A) (A) (A) (A)
                 (A) (A) (A) (A) (A) (A) (A) (A) (A) (A) (A) (A)
                 (A) (A) (A) (A) (A) (A) (A) (A) (A) (A) (A) (A)
                 (A) (A) (A) (A) (A) (A) (A) (A) (A) (A) (A) (A)
                 (A) (A) (A) (A) (A) (A) (A) (A) (A) (A) (A) (A)
                 (A) (A) (A) (A) (A) (A) (A) (A) (A) (A) (A) (A)
                 (A) (A) (A) (A) (A) (A) (A) (A) (A) (A) (A) (A)
                 (A) (A) (A) (A) (A) (A) (A) (A) (A) (A) (A) (A)
                 (A) (A) (A) (A) (A) (A) (A) (A) (A) (A) (A) (A)
                 (A) (A) (A) (A) (A) (A) (A) (A) (A) (A) (A) (A)
                 (A) (A) (A) (A) (A)
 The electronic state is 1-A.
 Alpha  occ. eigenvalues --  -19.69815 -19.61913 -19.61909 -10.68814 -10.68811
 Alpha  occ. eigenvalues --  -10.55504 -10.55502 -10.52669 -10.52668  -1.28008
 Alpha  occ. eigenvalues --   -1.17663  -1.15227  -0.91872  -0.89767  -0.82282
 Alpha  occ. eigenvalues --   -0.74632  -0.69569  -0.62000  -0.60469  -0.60066
 Alpha  occ. eigenvalues --   -0.58499  -0.55470  -0.53815  -0.51925  -0.49973
 Alpha  occ. eigenvalues --   -0.46574  -0.45940  -0.45090  -0.44251  -0.44201
 Alpha  occ. eigenvalues --   -0.42618  -0.42231  -0.40999  -0.39543  -0.34124
 Alpha virt. eigenvalues --   -0.03605  -0.02175  -0.01285  -0.00877  -0.00735
 Alpha virt. eigenvalues --    0.00331   0.00756   0.01150   0.02264   0.02906
 Alpha virt. eigenvalues --    0.04092   0.04269   0.04500   0.05288   0.06152
 Alpha virt. eigenvalues --    0.06165   0.06238   0.07904   0.09291   0.09786
 Alpha virt. eigenvalues --    0.09850   0.10238   0.10817   0.11358   0.11555
 Alpha virt. eigenvalues --    0.13098   0.13247   0.13352   0.13399   0.14821
 Alpha virt. eigenvalues --    0.15345   0.16482   0.17087   0.17899   0.18473
 Alpha virt. eigenvalues --    0.19590   0.19795   0.20191   0.20923   0.21316
 Alpha virt. eigenvalues --    0.23547   0.24024   0.24754   0.25544   0.25601
 Alpha virt. eigenvalues --    0.26211   0.26767   0.27401   0.28656   0.28832
 Alpha virt. eigenvalues --    0.30648   0.30718   0.31668   0.31867   0.32807
 Alpha virt. eigenvalues --    0.34083   0.35166   0.36305   0.36542   0.37417
 Alpha virt. eigenvalues --    0.38125   0.40224   0.44268   0.44647   0.46312
 Alpha virt. eigenvalues --    0.47033   0.47604   0.49380   0.50072   0.53137
 Alpha virt. eigenvalues --    0.53286   0.53794   0.54918   0.59728   0.60817
 Alpha virt. eigenvalues --    0.61091   0.64228   0.65541   0.66199   0.67235
 Alpha virt. eigenvalues --    0.67767   0.68454   0.68680   0.69914   0.70754
 Alpha virt. eigenvalues --    0.71685   0.71880   0.73038   0.74526   0.74780
 Alpha virt. eigenvalues --    0.76056   0.79124   0.81143   0.90475   0.93377
 Alpha virt. eigenvalues --    0.94611   0.96206   1.00096   1.05009   1.05042
 Alpha virt. eigenvalues --    1.05285   1.07058   1.07956   1.15243   1.17361
 Alpha virt. eigenvalues --    1.19923   1.20863   1.21178   1.23598   1.25354
 Alpha virt. eigenvalues --    1.28214   1.28233   1.28387   1.28416   1.31019
 Alpha virt. eigenvalues --    1.40027   1.41795   1.46150   1.48301   1.49197
 Alpha virt. eigenvalues --    1.49540   1.51298   1.53304   1.54346   1.55939
 Alpha virt. eigenvalues --    1.56539   1.57953   1.58112   1.59002   1.59879
 Alpha virt. eigenvalues --    1.60420   1.63365   1.63949   1.68253   1.68684
 Alpha virt. eigenvalues --    1.71717   1.72199   1.74535   1.77582   1.82563
 Alpha virt. eigenvalues --    1.84438   1.84620   1.85696   1.85882   1.85934
 Alpha virt. eigenvalues --    1.88908   1.93361   2.02708   2.07574   2.10165
 Alpha virt. eigenvalues --    2.10443   2.11501   2.17036   2.17271   2.17817
 Alpha virt. eigenvalues --    2.20317   2.26641   2.33291   2.33345   2.33760
 Alpha virt. eigenvalues --    2.40620   2.41499   2.46525   2.49077   2.49878
 Alpha virt. eigenvalues --    2.51562   2.56083   2.56711   2.57183   2.61215
 Alpha virt. eigenvalues --    2.61237   2.64049   2.64497   2.65755   2.66443
 Alpha virt. eigenvalues --    2.66940   2.67392   2.67654   2.75369   2.79579
 Alpha virt. eigenvalues --    2.81529   2.82601   2.85295   2.92260   2.94252
 Alpha virt. eigenvalues --    2.94795   2.97014   2.99498   3.01866   3.09828
 Alpha virt. eigenvalues --    3.13378   3.16557   3.20187   3.23294   3.27069
 Alpha virt. eigenvalues --    3.37584   3.40250   3.40775   3.44569   3.54339
 Alpha virt. eigenvalues --    3.61821   3.67113   3.81605   3.82018   3.83913
 Alpha virt. eigenvalues --    3.84318   3.84953   3.85519   3.87153   4.04039
 Alpha virt. eigenvalues --    4.14896   4.14926   4.28663   4.35962   4.44892
 Alpha virt. eigenvalues --    5.05192   5.12621   5.17838   5.26013   5.43931
 Alpha virt. eigenvalues --    5.45311   5.73402   5.87825   5.99142  23.82833
 Alpha virt. eigenvalues --   23.85865  23.93255  23.95354  24.02567  24.03739
 Alpha virt. eigenvalues --   49.88280  49.98272  49.98708
          Condensed to atoms (all electrons):
               1          2          3          4          5          6
     1  O    8.753866  -0.105647  -0.105631  -0.473422  -0.473502   0.114279
     2  O   -0.105647   7.808121   0.024258   0.135485  -0.024957   0.500380
     3  O   -0.105631   0.024258   7.808231  -0.024940   0.135393  -0.155905
     4  C   -0.473422   0.135485  -0.024940   9.171735  -0.311687  -1.898291
     5  C   -0.473502  -0.024957   0.135393  -0.311687   9.174147  -0.659856
     6  C    0.114279   0.500380  -0.155905  -1.898291  -0.659856   8.887032
     7  C    0.114056  -0.155883   0.500453  -0.659471  -1.899669  -1.116789
     8  C    0.028137  -0.008338   0.002880  -0.557816   0.007714   0.514422
     9  C    0.028150   0.002883  -0.008305   0.007722  -0.558354  -0.080910
    10  H    0.011908   0.000967  -0.001221   0.425430  -0.003423  -0.059871
    11  H    0.011839   0.001404  -0.001190   0.430918  -0.003568  -0.062797
    12  H    0.011992  -0.001212   0.000973  -0.003373   0.424678   0.027947
    13  H    0.011753  -0.001199   0.001398  -0.003616   0.431599   0.028949
    14  H   -0.005089   0.007347   0.000009  -0.060791  -0.001216   0.014118
    15  H   -0.004514  -0.014453   0.000302   0.012478   0.000778  -0.033062
    16  H   -0.004328  -0.014655   0.000306   0.010221   0.000805  -0.031930
    17  H   -0.004284   0.000313  -0.014632   0.000830   0.009980  -0.008001
    18  H   -0.005092   0.000009   0.007343  -0.001215  -0.060834  -0.004140
    19  H   -0.004557   0.000297  -0.014472   0.000752   0.012780  -0.008276
               7          8          9         10         11         12
     1  O    0.114056   0.028137   0.028150   0.011908   0.011839   0.011992
     2  O   -0.155883  -0.008338   0.002883   0.000967   0.001404  -0.001212
     3  O    0.500453   0.002880  -0.008305  -0.001221  -0.001190   0.000973
     4  C   -0.659471  -0.557816   0.007722   0.425430   0.430918  -0.003373
     5  C   -1.899669   0.007714  -0.558354  -0.003423  -0.003568   0.424678
     6  C   -1.116789   0.514422  -0.080910  -0.059871  -0.062797   0.027947
     7  C    8.888014  -0.080993   0.514645   0.027765   0.029137  -0.059874
     8  C   -0.080993   5.882485  -0.002058  -0.066164  -0.068798   0.000158
     9  C    0.514645  -0.002058   5.882643   0.000166   0.000089  -0.065940
    10  H    0.027765  -0.066164   0.000166   0.492876  -0.053570  -0.000565
    11  H    0.029137  -0.068798   0.000089  -0.053570   0.493586   0.001007
    12  H   -0.059874   0.000158  -0.065940  -0.000565   0.001007   0.492974
    13  H   -0.062755   0.000098  -0.068977   0.001012  -0.000705  -0.053576
    14  H   -0.004140   0.392118   0.000054  -0.003332  -0.003559  -0.000045
    15  H   -0.008150   0.405806  -0.000029  -0.020777   0.009228  -0.000016
    16  H   -0.008116   0.406862  -0.000004   0.009133  -0.020643  -0.000020
    17  H   -0.032001  -0.000005   0.407001  -0.000021  -0.000011   0.009123
    18  H    0.014136   0.000054   0.392143  -0.000044  -0.000047  -0.003285
    19  H   -0.033037  -0.000029   0.405651  -0.000017  -0.000019  -0.020811
              13         14         15         16         17         18
     1  O    0.011753  -0.005089  -0.004514  -0.004328  -0.004284  -0.005092
     2  O   -0.001199   0.007347  -0.014453  -0.014655   0.000313   0.000009
     3  O    0.001398   0.000009   0.000302   0.000306  -0.014632   0.007343
     4  C   -0.003616  -0.060791   0.012478   0.010221   0.000830  -0.001215
     5  C    0.431599  -0.001216   0.000778   0.000805   0.009980  -0.060834
     6  C    0.028949   0.014118  -0.033062  -0.031930  -0.008001  -0.004140
     7  C   -0.062755  -0.004140  -0.008150  -0.008116  -0.032001   0.014136
     8  C    0.000098   0.392118   0.405806   0.406862  -0.000005   0.000054
     9  C   -0.068977   0.000054  -0.000029  -0.000004   0.407001   0.392143
    10  H    0.001012  -0.003332  -0.020777   0.009133  -0.000021  -0.000044
    11  H   -0.000705  -0.003559   0.009228  -0.020643  -0.000011  -0.000047
    12  H   -0.053576  -0.000045  -0.000016  -0.000020   0.009123  -0.003285
    13  H    0.493526  -0.000045  -0.000020  -0.000012  -0.020598  -0.003611
    14  H   -0.000045   0.519127  -0.031150  -0.031241   0.000001   0.000001
    15  H   -0.000020  -0.031150   0.510261  -0.049123   0.000000   0.000001
    16  H   -0.000012  -0.031241  -0.049123   0.510531   0.000008   0.000001
    17  H   -0.020598   0.000001   0.000000   0.000008   0.510440  -0.031180
    18  H   -0.003611   0.000001   0.000001   0.000001  -0.031180   0.519186
    19  H    0.009229   0.000001   0.000009  -0.000000  -0.049129  -0.031193
              19
     1  O   -0.004557
     2  O    0.000297
     3  O   -0.014472
     4  C    0.000752
     5  C    0.012780
     6  C   -0.008276
     7  C   -0.033037
     8  C   -0.000029
     9  C    0.405651
    10  H   -0.000017
    11  H   -0.000019
    12  H   -0.020811
    13  H    0.009229
    14  H    0.000001
    15  H    0.000009
    16  H   -0.000000
    17  H   -0.049129
    18  H   -0.031193
    19  H    0.510307
 Mulliken charges:
               1
     1  O    0.100084
     2  O   -0.155120
     3  O   -0.155252
     4  C   -0.200950
     5  C   -0.200809
     6  C    0.032700
     7  C    0.032673
     8  C   -0.856533
     9  C   -0.856569
    10  H    0.239748
    11  H    0.237697
    12  H    0.239866
    13  H    0.237550
    14  H    0.207831
    15  H    0.222433
    16  H    0.222203
    17  H    0.222167
    18  H    0.207766
    19  H    0.222513
 Sum of Mulliken charges =  -0.00000
 Mulliken charges with hydrogens summed into heavy atoms:
               1
     1  O    0.100084
     2  O   -0.155120
     3  O   -0.155252
     4  C    0.276495
     5  C    0.276607
     6  C    0.032700
     7  C    0.032673
     8  C   -0.204066
     9  C   -0.204123
 Electronic spatial extent (au):  <R**2>=           1712.0987
 Charge=             -0.0000 electrons
 Dipole moment (field-independent basis, Debye):
    X=             -0.0014    Y=             -4.4519    Z=             -0.0041  Tot=              4.4519
 Quadrupole moment (field-independent basis, Debye-Ang):
   XX=            -47.7882   YY=            -61.3210   ZZ=            -52.2141
   XY=             -0.0003   XZ=              0.0027   YZ=              0.0120
 Traceless Quadrupole moment (field-independent basis, Debye-Ang):
   XX=              5.9863   YY=             -7.5466   ZZ=              1.5603
   XY=             -0.0003   XZ=              0.0027   YZ=              0.0120
 Octapole moment (field-independent basis, Debye-Ang**2):
  XXX=             -0.0161  YYY=             -5.2042  ZZZ=             -0.0923  XYY=             -0.0026
  XXY=            -12.9529  XXZ=             -0.1080  XZZ=             -0.0021  YZZ=              1.1574
  YYZ=              0.0246  XYZ=              0.0069
 Hexadecapole moment (field-independent basis, Debye-Ang**3):
 XXXX=          -1897.4661 YYYY=           -302.6003 ZZZZ=            -79.1476 XXXY=              0.0151
 XXXZ=              0.0161 YYYX=             -0.0019 YYYZ=             -0.1477 ZZZX=             -0.0101
 ZZZY=              0.1699 XXYY=           -374.3548 XXZZ=           -331.3180 YYZZ=            -57.2007
 XXYZ=              0.0153 YYXZ=              0.0092 ZZXY=              0.0010
 N-N= 4.550740513322D+02 E-N=-1.986239787686D+03  KE= 4.582675803345D+02
 R6APFD:  NTU= -4 IXU= 1 FactS= 1.050
 Calling FoFJK, ICntrl=      2127 FMM=F ISym2X=0 I1Cent= 0 IOpClX= 0 NMat=1 NMatS=1 NMatT=0.
 ***** Axes restored to original set *****
 -------------------------------------------------------------------
 Center     Atomic                   Forces (Hartrees/Bohr)
 Number     Number              X              Y              Z
 -------------------------------------------------------------------
      1        8           0.000081303   -0.021277578   -0.000038299
      2        8          -0.009391248    0.057095530   -0.000014190
      3        8           0.009401695    0.057189639   -0.000110509
      4        6           0.006345622   -0.005467243    0.000386376
      5        6          -0.006340408   -0.005421114    0.000405280
      6        6           0.030130122   -0.044892433   -0.000116096
      7        6          -0.030185033   -0.045036620    0.000167082
      8        6           0.002975328   -0.003949699   -0.000127686
      9        6          -0.003036905   -0.003871670   -0.000163753
     10        1          -0.004794509    0.004510393    0.000977766
     11        1          -0.004830527    0.004564617   -0.001196412
     12        1           0.004761542    0.004535140    0.000946452
     13        1           0.004837228    0.004509916   -0.001260033
     14        1           0.000568836    0.000611750    0.000008913
     15        1          -0.000027358   -0.000915707    0.000534851
     16        1          -0.000023119   -0.000905216   -0.000473615
     17        1           0.000034813   -0.000909230   -0.000448781
     18        1          -0.000521524    0.000541739   -0.000000057
     19        1           0.000014142   -0.000912215    0.000522711
 -------------------------------------------------------------------
 Cartesian Forces:  Max     0.057189639 RMS     0.015330404

 GradGradGradGradGradGradGradGradGradGradGradGradGradGradGradGradGradGrad
 Berny optimization.
 FormGI is forming the generalized inverse of G from B-inverse, IUseBI=4.
 Internal  Forces:  Max     0.057859302 RMS     0.010476201
 Search for a local minimum.
 Step number   1 out of a maximum of   93
 All quantities printed in internal units (Hartrees-Bohrs-Radians)
 Mixed Optimization -- RFO/linear search
 Second derivative matrix not updated -- first step.
 ITU=  0
     Eigenvalues ---    0.00517   0.00517   0.00597   0.00598   0.00991
     Eigenvalues ---    0.00992   0.02102   0.02104   0.04301   0.04301
     Eigenvalues ---    0.05532   0.05532   0.05629   0.05629   0.05682
     Eigenvalues ---    0.05683   0.09265   0.09267   0.12749   0.12750
     Eigenvalues ---    0.16000   0.16000   0.16000   0.16000   0.16000
     Eigenvalues ---    0.16000   0.22034   0.22034   0.25000   0.25000
     Eigenvalues ---    0.25000   0.25000   0.25000   0.30480   0.30483
     Eigenvalues ---    0.31073   0.31080   0.34213   0.34218   0.34223
     Eigenvalues ---    0.34226   0.34228   0.34230   0.34230   0.34234
     Eigenvalues ---    0.34314   0.34329   0.51167   0.51200   0.93977
     Eigenvalues ---    0.94020
 RFO step:  Lambda=-1.64901979D-02 EMin= 5.16882142D-03
 Linear search not attempted -- first point.
 Iteration  1 RMS(Cart)=  0.08422013 RMS(Int)=  0.00232821
 Iteration  2 RMS(Cart)=  0.00543897 RMS(Int)=  0.00017656
 Iteration  3 RMS(Cart)=  0.00000607 RMS(Int)=  0.00017652
 Iteration  4 RMS(Cart)=  0.00000000 RMS(Int)=  0.00017652
 Variable       Old X    -DE/DX   Delta X   Delta X   Delta X     New X
                                 (Linear)    (Quad)   (Total)
    R1        2.58706   0.01243   0.00000   0.02353   0.02353   2.61059
    R2        2.58673   0.01251   0.00000   0.02367   0.02367   2.61040
    R3        2.31134  -0.05776   0.00000  -0.06038  -0.06038   2.25096
    R4        2.31152  -0.05786   0.00000  -0.06051  -0.06051   2.25102
    R5        2.85873  -0.00085   0.00000  -0.00259  -0.00259   2.85614
    R6        2.87017   0.00546   0.00000   0.01701   0.01701   2.88718
    R7        2.06964   0.00208   0.00000   0.00579   0.00579   2.07543
    R8        2.06950   0.00210   0.00000   0.00586   0.00586   2.07536
    R9        2.85861  -0.00080   0.00000  -0.00246  -0.00246   2.85615
   R10        2.87011   0.00547   0.00000   0.01703   0.01703   2.88715
   R11        2.06956   0.00211   0.00000   0.00589   0.00589   2.07545
   R12        2.06972   0.00202   0.00000   0.00564   0.00564   2.07536
   R13        2.06779   0.00083   0.00000   0.00231   0.00231   2.07010
   R14        2.06946   0.00011   0.00000   0.00030   0.00030   2.06976
   R15        2.06944   0.00013   0.00000   0.00036   0.00036   2.06979
   R16        2.06937   0.00015   0.00000   0.00042   0.00042   2.06979
   R17        2.06803   0.00075   0.00000   0.00209   0.00209   2.07012
   R18        2.06944   0.00012   0.00000   0.00032   0.00032   2.06976
    A1        2.05497   0.04117   0.00000   0.15449   0.15449   2.20945
    A2        1.95770  -0.00341   0.00000  -0.00882  -0.00866   1.94904
    A3        1.89274  -0.00112   0.00000  -0.01519  -0.01524   1.87750
    A4        1.89297  -0.00111   0.00000  -0.01436  -0.01443   1.87854
    A5        1.90803   0.00460   0.00000   0.03614   0.03598   1.94402
    A6        1.90683   0.00474   0.00000   0.03780   0.03764   1.94447
    A7        1.90492  -0.00389   0.00000  -0.03762  -0.03856   1.86636
    A8        1.95782  -0.00342   0.00000  -0.00887  -0.00870   1.94911
    A9        1.89263  -0.00109   0.00000  -0.01494  -0.01499   1.87764
   A10        1.89291  -0.00113   0.00000  -0.01448  -0.01454   1.87837
   A11        1.90823   0.00457   0.00000   0.03589   0.03573   1.94396
   A12        1.90677   0.00477   0.00000   0.03791   0.03775   1.94452
   A13        1.90483  -0.00389   0.00000  -0.03759  -0.03852   1.86631
   A14        2.21883  -0.00608   0.00000  -0.02280  -0.02280   2.19603
   A15        1.88899   0.00437   0.00000   0.01638   0.01638   1.90538
   A16        2.17536   0.00171   0.00000   0.00642   0.00642   2.18178
   A17        2.21890  -0.00609   0.00000  -0.02286  -0.02286   2.19604
   A18        1.88897   0.00440   0.00000   0.01649   0.01649   1.90546
   A19        2.17532   0.00170   0.00000   0.00637   0.00637   2.18168
   A20        1.92670  -0.00003   0.00000   0.00170   0.00169   1.92839
   A21        1.93817   0.00037   0.00000   0.00124   0.00124   1.93941
   A22        1.93807   0.00033   0.00000   0.00087   0.00087   1.93894
   A23        1.88870   0.00011   0.00000   0.00246   0.00245   1.89116
   A24        1.88894   0.00011   0.00000   0.00228   0.00227   1.89121
   A25        1.88149  -0.00092   0.00000  -0.00870  -0.00870   1.87279
   A26        1.93822   0.00030   0.00000   0.00071   0.00070   1.93892
   A27        1.92650   0.00000   0.00000   0.00186   0.00186   1.92836
   A28        1.93816   0.00038   0.00000   0.00130   0.00130   1.93945
   A29        1.88892   0.00011   0.00000   0.00228   0.00228   1.89120
   A30        1.88142  -0.00091   0.00000  -0.00863  -0.00863   1.87278
   A31        1.88885   0.00009   0.00000   0.00233   0.00233   1.89118
    D1       -0.00009  -0.00003   0.00000  -0.00078  -0.00077  -0.00086
    D2        3.14047   0.00001   0.00000   0.00032   0.00031   3.14078
    D3        0.00005  -0.00003   0.00000  -0.00114  -0.00111  -0.00106
    D4        3.14072   0.00007   0.00000   0.00221   0.00218  -3.14029
    D5        3.12835   0.00007   0.00000   0.00139   0.00138   3.12973
    D6       -0.01424   0.00010   0.00000   0.00243   0.00243  -0.01181
    D7       -1.04589   0.00292   0.00000   0.03080   0.03059  -1.01530
    D8        2.09470   0.00295   0.00000   0.03184   0.03164   2.12633
    D9        1.02077  -0.00297   0.00000  -0.03066  -0.03045   0.99032
   D10       -2.12183  -0.00294   0.00000  -0.02961  -0.02940  -2.15123
   D11       -3.13993  -0.00003   0.00000  -0.00080  -0.00081  -3.14074
   D12        1.04842  -0.00040   0.00000  -0.00582  -0.00582   1.04260
   D13       -1.04487   0.00030   0.00000   0.00375   0.00374  -1.04113
   D14        1.04316   0.00046   0.00000  -0.00048  -0.00032   1.04284
   D15       -1.05167   0.00009   0.00000  -0.00550  -0.00534  -1.05700
   D16        3.13822   0.00079   0.00000   0.00406   0.00423  -3.14073
   D17       -1.04038  -0.00041   0.00000   0.00103   0.00088  -1.03950
   D18       -3.13521  -0.00077   0.00000  -0.00398  -0.00414  -3.13935
   D19        1.05468  -0.00008   0.00000   0.00558   0.00542   1.06011
   D20       -3.12642  -0.00014   0.00000  -0.00377  -0.00377  -3.13019
   D21        0.01428  -0.00006   0.00000  -0.00055  -0.00053   0.01374
   D22        1.04758  -0.00297   0.00000  -0.03301  -0.03281   1.01477
   D23       -2.09491  -0.00289   0.00000  -0.02979  -0.02957  -2.12448
   D24       -1.01888   0.00291   0.00000   0.02831   0.02809  -0.99078
   D25        2.12182   0.00299   0.00000   0.03153   0.03133   2.15315
   D26        1.04491  -0.00031   0.00000  -0.00381  -0.00381   1.04110
   D27        3.13993   0.00002   0.00000   0.00074   0.00074   3.14067
   D28       -1.04838   0.00039   0.00000   0.00574   0.00575  -1.04263
   D29       -3.13812  -0.00078   0.00000  -0.00401  -0.00417   3.14089
   D30       -1.04311  -0.00045   0.00000   0.00055   0.00038  -1.04272
   D31        1.05177  -0.00009   0.00000   0.00555   0.00539   1.05716
   D32       -1.05460   0.00008   0.00000  -0.00556  -0.00540  -1.06000
   D33        1.04041   0.00041   0.00000  -0.00101  -0.00085   1.03956
   D34        3.13529   0.00077   0.00000   0.00400   0.00415   3.13944
         Item               Value     Threshold  Converged?
 Maximum Force            0.057859     0.000450     NO 
 RMS     Force            0.010476     0.000300     NO 
 Maximum Displacement     0.322286     0.001800     NO 
 RMS     Displacement     0.084411     0.001200     NO 
 Predicted change in Energy=-8.666513D-03
 GradGradGradGradGradGradGradGradGradGradGradGradGradGradGradGradGradGrad

                          Input orientation:                          
 ---------------------------------------------------------------------
 Center     Atomic      Atomic             Coordinates (Angstroms)
 Number     Number       Type             X           Y           Z
 ---------------------------------------------------------------------
      1          8           0       -0.000007    0.445154   -0.002136
      2          8           0        1.422877   -1.351767   -0.000007
      3          8           0       -1.422865   -1.351714   -0.000980
      4          6           0        2.319018    0.876617   -0.004436
      5          6           0       -2.319028    0.876637   -0.003698
      6          6           0        1.234103   -0.175666   -0.001917
      7          6           0       -1.234048   -0.175586   -0.001152
      8          6           0        3.712492    0.250360    0.012522
      9          6           0       -3.712495    0.250401    0.013440
     10          1           0        2.172004    1.502318   -0.894991
     11          1           0        2.158766    1.521737    0.869779
     12          1           0       -2.172198    1.502386   -0.894260
     13          1           0       -2.158598    1.521758    0.870486
     14          1           0        4.482903    1.029127    0.011285
     15          1           0        3.868023   -0.390058   -0.862289
     16          1           0        3.853648   -0.373121    0.901905
     17          1           0       -3.853554   -0.372999    0.902890
     18          1           0       -4.482881    1.029206    0.012253
     19          1           0       -3.868160   -0.390090   -0.861292
 ---------------------------------------------------------------------
                    Distance matrix (angstroms):
                    1          2          3          4          5
     1  O    0.000000
     2  O    2.292057   0.000000
     3  O    2.291998   2.845742   0.000000
     4  C    2.358823   2.401830   4.355130   0.000000
     5  C    2.358821   4.355186   2.401804   4.638046   0.000000
     6  C    1.381465   1.191155   2.905609   1.511406   3.705683
     7  C    1.381367   2.905624   1.191188   3.705593   1.511410
     8  C    3.717635   2.794513   5.379471   1.527827   6.063969
     9  C    3.717625   5.379514   2.794528   6.063961   1.527814
    10  H    2.575348   3.083503   4.676305   1.098273   4.621174
    11  H    2.565066   3.091130   4.673651   1.098231   4.607575
    12  H    2.575275   4.676584   3.083073   4.621082   1.098282
    13  H    2.565162   4.673527   3.091536   4.607682   1.098233
    14  H    4.520807   3.877183   6.367625   2.169310   6.803657
    15  H    4.049580   2.765349   5.446111   2.177107   6.373484
    16  H    4.041970   2.771253   5.441915   2.176784   6.362700
    17  H    4.042062   5.441868   2.771843   6.362816   2.176754
    18  H    4.520783   6.367665   3.877196   6.803631   2.169283
    19  H    4.049492   5.446256   2.764837   6.373376   2.177125
                    6          7          8          9         10
     6  C    0.000000
     7  C    2.468151   0.000000
     8  C    2.514780   4.964864   0.000000
     9  C    4.964937   2.514832   7.424987   0.000000
    10  H    2.119639   3.900704   2.182678   6.084395   0.000000
    11  H    2.120385   3.892378   2.182969   6.068057   1.764926
    12  H    3.900644   2.119755   6.084357   2.182636   4.344202
    13  H    3.892654   2.120264   6.068134   2.182996   4.676686
    14  H    3.465026   5.842518   1.095452   8.232313   2.526955
    15  H    2.779161   5.178675   1.095271   7.657763   2.541385
    16  H    2.778111   5.170994   1.095288   7.643604   3.094194
    17  H    5.171254   2.778143   7.643715   1.095284   6.561748
    18  H    5.842587   3.465057   8.232299   1.095460   6.733083
    19  H    5.178570   2.779281   7.657677   1.095270   6.329764
                   11         12         13         14         15
    11  H    0.000000
    12  H    4.676479   0.000000
    13  H    4.317363   1.764905   0.000000
    14  H    2.526122   6.733079   6.714942   0.000000
    15  H    3.094605   6.329821   6.555738   1.776315   0.000000
    16  H    2.542469   6.561598   6.303860   1.776363   1.764334
    17  H    6.303896   3.094152   2.542446   8.500437   7.920789
    18  H    6.714864   2.526840   2.526156   8.965784   8.515675
    19  H    6.555571   2.541425   3.094643   8.515622   7.736183
                   16         17         18         19
    16  H    0.000000
    17  H    7.707202   0.000000
    18  H    8.500337   1.776363   0.000000
    19  H    7.920573   1.764325   1.776334   0.000000
 Stoichiometry    C6H10O3
 Framework group  C1[X(C6H10O3)]
 Deg. of freedom    51
 Full point group                 C1      NOp   1
 Largest Abelian subgroup         C1      NOp   1
 Largest concise Abelian subgroup C1      NOp   1
                         Standard orientation:                         
 ---------------------------------------------------------------------
 Center     Atomic      Atomic             Coordinates (Angstroms)
 Number     Number       Type             X           Y           Z
 ---------------------------------------------------------------------
      1          8           0        0.000015   -0.446152   -0.003707
      2          8           0       -1.422887    1.350755   -0.001970
      3          8           0        1.422854    1.350731   -0.003232
      4          6           0       -2.319006   -0.877640   -0.005644
      5          6           0        2.319040   -0.877611   -0.005376
      6          6           0       -1.234102    0.174656   -0.003549
      7          6           0        1.234049    0.174601   -0.003034
      8          6           0       -3.712485   -0.251391    0.011269
      9          6           0        3.712502   -0.251357    0.011433
     10          1           0       -2.172076   -1.503604   -0.896027
     11          1           0       -2.158658   -1.522497    0.868747
     12          1           0        2.172126   -1.503628   -0.895737
     13          1           0        2.158705   -1.522473    0.869016
     14          1           0       -4.482888   -1.030167    0.010342
     15          1           0       -3.868111    0.388764   -0.863717
     16          1           0       -3.853557    0.372353    0.900480
     17          1           0        3.853645    0.372310    0.900683
     18          1           0        4.482896   -1.030154    0.010400
     19          1           0        3.868072    0.388875   -0.863505
 ---------------------------------------------------------------------
 Rotational constants (GHZ):           5.0441761           0.7356844           0.6524583
 Standard basis: 6-311++G(d,p) (5D, 7F)
 There are   277 symmetry adapted cartesian basis functions of A   symmetry.
 There are   268 symmetry adapted basis functions of A   symmetry.
   268 basis functions,   414 primitive gaussians,   277 cartesian basis functions
    35 alpha electrons       35 beta electrons
       nuclear repulsion energy       452.1209767787 Hartrees.
 NAtoms=   19 NActive=   19 NUniq=   19 SFac= 1.00D+00 NAtFMM=   60 NAOKFM=F Big=F
 Integral buffers will be    131072 words long.
 Raffenetti 2 integral format.
 Two-electron integral symmetry is turned on.
 R6APFD:  NTU= -4 IXU= 1 FactS= 1.050
 Nuclear repulsion after empirical dispersion term =      452.1085113074 Hartrees.
 One-electron integrals computed using PRISM.
 NBasis=   268 RedAO= T EigKep=  1.08D-05  NBF=   268
 NBsUse=   268 1.00D-06 EigRej= -1.00D+00 NBFU=   268
 Initial guess from the checkpoint file:  "PPAC0147.chk"
 B after Tr=    -0.000000   -0.000000   -0.000000
         Rot=    1.000000   -0.000405   -0.000003   -0.000002 Ang=  -0.05 deg.
 ExpMin= 3.60D-02 ExpMax= 8.59D+03 ExpMxC= 1.30D+03 IAcc=3 IRadAn=         5 AccDes= 0.00D+00
 Harris functional with IExCor= 1009 and IRadAn=       5 diagonalized for initial guess.
 HarFok:  IExCor= 1009 AccDes= 0.00D+00 IRadAn=         5 IDoV= 1 UseB2=F ITyADJ=14
 ICtDFT=  3500011 ScaDFX=  1.000000  1.000000  1.000000  1.000000
 FoFCou: FMM=F IPFlag=           0 FMFlag=      100000 FMFlg1=           0
         NFxFlg=           0 DoJE=T BraDBF=F KetDBF=T FulRan=T
         wScrn=  0.000000 ICntrl=       500 IOpCl=  0 I1Cent=   200000004 NGrid=           0
         NMat0=    1 NMatS0=      1 NMatT0=    0 NMatD0=    1 NMtDS0=    0 NMtDT0=    0
 Petite list used in FoFCou.
 Requested convergence on RMS density matrix=1.00D-08 within  32 cycles.
 Requested convergence on MAX density matrix=1.00D-06.
 Requested convergence on             energy=1.00D-06.
 No special actions if energy rises.
 SCF Done:  E(RM08HX) =  -460.342638532     A.U. after   12 cycles
            NFock= 12  Conv=0.21D-08     -V/T= 2.0043
 QCSCF skips out because SCF is already converged.
 R6APFD:  NTU= -4 IXU= 1 FactS= 1.050
 Calling FoFJK, ICntrl=      2127 FMM=F ISym2X=0 I1Cent= 0 IOpClX= 0 NMat=1 NMatS=1 NMatT=0.
 ***** Axes restored to original set *****
 -------------------------------------------------------------------
 Center     Atomic                   Forces (Hartrees/Bohr)
 Number     Number              X              Y              Z
 -------------------------------------------------------------------
      1        8           0.000029819    0.004406314    0.000015119
      2        8          -0.007163816    0.004929601    0.000000638
      3        8           0.007169507    0.004956279    0.000128291
      4        6           0.002104923   -0.000568631    0.000126252
      5        6          -0.002088635   -0.000550833    0.000254145
      6        6           0.004599389   -0.009735989    0.000051195
      7        6          -0.004645402   -0.009792875   -0.000315350
      8        6          -0.000796790    0.000454625   -0.000058261
      9        6           0.000792533    0.000455776   -0.000049081
     10        1          -0.001013527    0.001456478    0.000857514
     11        1          -0.000998508    0.001404717   -0.000945699
     12        1           0.001039873    0.001430291    0.000858636
     13        1           0.000968498    0.001425943   -0.000945652
     14        1          -0.000259089   -0.000031675    0.000001072
     15        1          -0.000569981   -0.000051446    0.000081401
     16        1          -0.000537329   -0.000049787   -0.000071832
     17        1           0.000532629   -0.000052663   -0.000069397
     18        1           0.000261155   -0.000036676    0.000001192
     19        1           0.000574750   -0.000049450    0.000079817
 -------------------------------------------------------------------
 Cartesian Forces:  Max     0.009792875 RMS     0.002754924

 GradGradGradGradGradGradGradGradGradGradGradGradGradGradGradGradGradGrad
 Berny optimization.
 Using GEDIIS/GDIIS optimizer.
 FormGI is forming the generalized inverse of G from B-inverse, IUseBI=4.
 Internal  Forces:  Max     0.016379653 RMS     0.002678898
 Search for a local minimum.
 Step number   2 out of a maximum of   93
 All quantities printed in internal units (Hartrees-Bohrs-Radians)
 Mixed Optimization -- RFO/linear search
 Update second derivatives using D2CorX and points    1    2
 DE= -7.19D-03 DEPred=-8.67D-03 R= 8.29D-01
 TightC=F SS=  1.41D+00  RLast= 2.28D-01 DXNew= 5.0454D-01 6.8441D-01
 Trust test= 8.29D-01 RLast= 2.28D-01 DXMaxT set to 5.05D-01
 ITU=  1  0
 Use linear search instead of GDIIS.
     Eigenvalues ---    0.00517   0.00517   0.00597   0.00598   0.00979
     Eigenvalues ---    0.00980   0.02102   0.02104   0.04245   0.04245
     Eigenvalues ---    0.05288   0.05331   0.05628   0.05634   0.05651
     Eigenvalues ---    0.05651   0.09100   0.09402   0.12754   0.12755
     Eigenvalues ---    0.15999   0.16000   0.16000   0.16000   0.16000
     Eigenvalues ---    0.16010   0.21474   0.21919   0.23345   0.25000
     Eigenvalues ---    0.25000   0.25000   0.30141   0.30481   0.31068
     Eigenvalues ---    0.31078   0.34075   0.34215   0.34220   0.34225
     Eigenvalues ---    0.34227   0.34229   0.34230   0.34234   0.34302
     Eigenvalues ---    0.34323   0.35297   0.51184   0.52715   0.84354
     Eigenvalues ---    0.93998
 RFO step:  Lambda=-1.80801814D-03 EMin= 5.16882196D-03
 Quartic linear search produced a step of -0.07686.
 Iteration  1 RMS(Cart)=  0.03938908 RMS(Int)=  0.00052416
 Iteration  2 RMS(Cart)=  0.00083722 RMS(Int)=  0.00002233
 Iteration  3 RMS(Cart)=  0.00000012 RMS(Int)=  0.00002233
 Variable       Old X    -DE/DX   Delta X   Delta X   Delta X     New X
                                 (Linear)    (Quad)   (Total)
    R1        2.61059  -0.00316  -0.00181  -0.00138  -0.00318   2.60741
    R2        2.61040  -0.00312  -0.00182  -0.00128  -0.00310   2.60730
    R3        2.25096  -0.00600   0.00464  -0.01704  -0.01240   2.23856
    R4        2.25102  -0.00603   0.00465  -0.01710  -0.01244   2.23857
    R5        2.85614   0.00033   0.00020   0.00052   0.00072   2.85687
    R6        2.88718  -0.00211  -0.00131  -0.00330  -0.00460   2.88257
    R7        2.07543   0.00027  -0.00045   0.00176   0.00132   2.07675
    R8        2.07536   0.00022  -0.00045   0.00164   0.00119   2.07654
    R9        2.85615   0.00033   0.00019   0.00054   0.00073   2.85688
   R10        2.88715  -0.00210  -0.00131  -0.00328  -0.00459   2.88256
   R11        2.07545   0.00026  -0.00045   0.00175   0.00129   2.07675
   R12        2.07536   0.00023  -0.00043   0.00162   0.00119   2.07655
   R13        2.07010  -0.00020  -0.00018  -0.00013  -0.00031   2.06979
   R14        2.06976  -0.00012  -0.00002  -0.00026  -0.00028   2.06948
   R15        2.06979  -0.00010  -0.00003  -0.00020  -0.00023   2.06956
   R16        2.06979  -0.00010  -0.00003  -0.00018  -0.00021   2.06957
   R17        2.07012  -0.00021  -0.00016  -0.00019  -0.00035   2.06977
   R18        2.06976  -0.00012  -0.00002  -0.00025  -0.00028   2.06948
    A1        2.20945  -0.01638  -0.01187  -0.03273  -0.04460   2.16485
    A2        1.94904  -0.00163   0.00067  -0.00612  -0.00545   1.94359
    A3        1.87750   0.00026   0.00117  -0.00224  -0.00106   1.87644
    A4        1.87854   0.00026   0.00111  -0.00190  -0.00078   1.87775
    A5        1.94402   0.00124  -0.00277   0.01461   0.01185   1.95586
    A6        1.94447   0.00128  -0.00289   0.01533   0.01244   1.95691
    A7        1.86636  -0.00146   0.00296  -0.02134  -0.01836   1.84800
    A8        1.94911  -0.00164   0.00067  -0.00618  -0.00551   1.94360
    A9        1.87764   0.00023   0.00115  -0.00255  -0.00138   1.87625
   A10        1.87837   0.00030   0.00112  -0.00154  -0.00041   1.87796
   A11        1.94396   0.00126  -0.00275   0.01463   0.01189   1.95585
   A12        1.94452   0.00125  -0.00290   0.01529   0.01239   1.95691
   A13        1.86631  -0.00146   0.00296  -0.02131  -0.01833   1.84798
   A14        2.19603  -0.00666   0.00175  -0.02843  -0.02668   2.16935
   A15        1.90538  -0.00083  -0.00126  -0.00016  -0.00142   1.90395
   A16        2.18178   0.00750  -0.00049   0.02860   0.02811   2.20988
   A17        2.19604  -0.00666   0.00176  -0.02843  -0.02668   2.16936
   A18        1.90546  -0.00085  -0.00127  -0.00018  -0.00146   1.90401
   A19        2.18168   0.00751  -0.00049   0.02862   0.02812   2.20981
   A20        1.92839   0.00009  -0.00013   0.00178   0.00165   1.93004
   A21        1.93941  -0.00061  -0.00010  -0.00378  -0.00389   1.93552
   A22        1.93894  -0.00057  -0.00007  -0.00362  -0.00370   1.93524
   A23        1.89116   0.00041  -0.00019   0.00369   0.00351   1.89466
   A24        1.89121   0.00039  -0.00017   0.00354   0.00337   1.89458
   A25        1.87279   0.00036   0.00067  -0.00135  -0.00070   1.87208
   A26        1.93892  -0.00057  -0.00005  -0.00360  -0.00367   1.93526
   A27        1.92836   0.00009  -0.00014   0.00183   0.00169   1.93005
   A28        1.93945  -0.00062  -0.00010  -0.00384  -0.00394   1.93551
   A29        1.89120   0.00038  -0.00018   0.00354   0.00337   1.89457
   A30        1.87278   0.00036   0.00066  -0.00134  -0.00069   1.87209
   A31        1.89118   0.00041  -0.00018   0.00367   0.00349   1.89467
    D1       -0.00086   0.00000   0.00006   0.00071   0.00073  -0.00013
    D2        3.14078  -0.00003  -0.00002  -0.00167  -0.00166   3.13912
    D3       -0.00106   0.00005   0.00009   0.00359   0.00356   0.00250
    D4       -3.14029  -0.00006  -0.00017  -0.00393  -0.00399   3.13891
    D5        3.12973   0.00005  -0.00011   0.00335   0.00326   3.13299
    D6       -0.01181   0.00002  -0.00019   0.00100   0.00080  -0.01102
    D7       -1.01530   0.00074  -0.00235   0.01621   0.01387  -1.00143
    D8        2.12633   0.00071  -0.00243   0.01385   0.01142   2.13775
    D9        0.99032  -0.00069   0.00234  -0.01063  -0.00828   0.98204
   D10       -2.15123  -0.00072   0.00226  -0.01298  -0.01074  -2.16197
   D11       -3.14074  -0.00001   0.00006  -0.00068  -0.00062  -3.14136
   D12        1.04260  -0.00018   0.00045  -0.00401  -0.00356   1.03903
   D13       -1.04113   0.00015  -0.00029   0.00258   0.00229  -1.03885
   D14        1.04284  -0.00008   0.00002  -0.00369  -0.00367   1.03917
   D15       -1.05700  -0.00025   0.00041  -0.00703  -0.00662  -1.06362
   D16       -3.14073   0.00008  -0.00032  -0.00044  -0.00077  -3.14150
   D17       -1.03950   0.00008  -0.00007   0.00327   0.00321  -1.03629
   D18       -3.13935  -0.00008   0.00032  -0.00006   0.00026  -3.13909
   D19        1.06011   0.00025  -0.00042   0.00653   0.00611   1.06622
   D20       -3.13019   0.00001   0.00029   0.00145   0.00178  -3.12841
   D21        0.01374  -0.00007   0.00004  -0.00590  -0.00589   0.00785
   D22        1.01477  -0.00068   0.00252  -0.01118  -0.00863   1.00614
   D23       -2.12448  -0.00077   0.00227  -0.01853  -0.01630  -2.14078
   D24       -0.99078   0.00075  -0.00216   0.01559   0.01347  -0.97731
   D25        2.15315   0.00066  -0.00241   0.00824   0.00580   2.15895
   D26        1.04110  -0.00014   0.00029  -0.00233  -0.00203   1.03908
   D27        3.14067   0.00003  -0.00006   0.00097   0.00091   3.14158
   D28       -1.04263   0.00020  -0.00044   0.00427   0.00382  -1.03881
   D29        3.14089  -0.00009   0.00032   0.00027   0.00059   3.14149
   D30       -1.04272   0.00007  -0.00003   0.00356   0.00353  -1.03919
   D31        1.05716   0.00024  -0.00041   0.00687   0.00645   1.06361
   D32       -1.06000  -0.00026   0.00042  -0.00667  -0.00625  -1.06626
   D33        1.03956  -0.00009   0.00007  -0.00338  -0.00332   1.03625
   D34        3.13944   0.00007  -0.00032  -0.00007  -0.00040   3.13904
         Item               Value     Threshold  Converged?
 Maximum Force            0.016380     0.000450     NO 
 RMS     Force            0.002679     0.000300     NO 
 Maximum Displacement     0.140186     0.001800     NO 
 RMS     Displacement     0.039576     0.001200     NO 
 Predicted change in Energy=-9.722860D-04
 GradGradGradGradGradGradGradGradGradGradGradGradGradGradGradGradGradGrad

                          Input orientation:                          
 ---------------------------------------------------------------------
 Center     Atomic      Atomic             Coordinates (Angstroms)
 Number     Number       Type             X           Y           Z
 ---------------------------------------------------------------------
      1          8           0       -0.000006    0.503289   -0.003325
      2          8           0        1.348693   -1.321516    0.002554
      3          8           0       -1.348747   -1.321448    0.000150
      4          6           0        2.325393    0.885550   -0.003497
      5          6           0       -2.325404    0.885609   -0.004276
      6          6           0        1.218461   -0.144106    0.000012
      7          6           0       -1.218450   -0.144041   -0.004254
      8          6           0        3.699711    0.223869    0.012211
      9          6           0       -3.699683    0.223911    0.013437
     10          1           0        2.183232    1.520894   -0.888857
     11          1           0        2.171800    1.541134    0.864899
     12          1           0       -2.184968    1.521818   -0.889286
     13          1           0       -2.170143    1.540366    0.864450
     14          1           0        4.491500    0.980650    0.009733
     15          1           0        3.832271   -0.422077   -0.862132
     16          1           0        3.820548   -0.403937    0.901395
     17          1           0       -3.818810   -0.404784    0.902230
     18          1           0       -4.491473    0.980680    0.013249
     19          1           0       -3.833924   -0.421160   -0.861295
 ---------------------------------------------------------------------
                    Distance matrix (angstroms):
                    1          2          3          4          5
     1  O    0.000000
     2  O    2.269126   0.000000
     3  O    2.269092   2.697441   0.000000
     4  C    2.356608   2.413528   4.286042   0.000000
     5  C    2.356618   4.286075   2.413499   4.650797   0.000000
     6  C    1.379780   1.184593   2.824303   1.511788   3.690435
     7  C    1.379726   2.824308   1.184602   3.690377   1.511796
     8  C    3.710285   2.813466   5.279685   1.525391   6.061368
     9  C    3.710249   5.279637   2.813399   6.061320   1.525386
    10  H    2.566362   3.093600   4.619969   1.098970   4.638305
    11  H    2.558842   3.100952   4.619135   1.098859   4.627096
    12  H    2.568344   4.622411   3.094272   4.640346   1.098967
    13  H    2.556962   4.616864   3.100271   4.625144   1.098862
    14  H    4.516821   3.895800   6.277598   2.168234   6.817581
    15  H    4.034873   2.779358   5.328728   2.172055   6.353182
    16  H    4.029666   2.785665   5.326882   2.171887   6.344753
    17  H    4.028386   5.324745   2.784822   6.343228   2.171895
    18  H    4.516797   6.277560   3.895727   6.817551   2.168225
    19  H    4.036044   5.330703   2.780056   6.354565   2.172041
                    6          7          8          9         10
     6  C    0.000000
     7  C    2.436915   0.000000
     8  C    2.508417   4.931930   0.000000
     9  C    4.931912   2.508430   7.399394   0.000000
    10  H    2.119693   3.889212   2.189499   6.091387   0.000000
    11  H    2.120594   3.884461   2.190154   6.077366   1.753910
    12  H    3.892234   2.119558   6.093177   2.189482   4.368200
    13  H    3.881666   2.120753   6.075743   2.190153   4.693222
    14  H    3.460919   5.819679   1.095288   8.226066   2.535238
    15  H    2.766327   5.130599   1.095123   7.610142   2.548565
    16  H    2.766019   5.126328   1.095166   7.598456   3.096899
    17  H    5.124066   2.766148   7.597071   1.095172   6.552918
    18  H    5.819679   3.460923   8.226072   1.095277   6.757020
    19  H    5.132758   2.766228   7.611487   1.095122   6.322855
                   11         12         13         14         15
    11  H    0.000000
    12  H    4.696697   0.000000
    13  H    4.341942   1.753897   0.000000
    14  H    2.535047   6.758426   6.739534   0.000000
    15  H    3.097418   6.323498   6.546850   1.778307   0.000000
    16  H    2.550099   6.556012   6.298416   1.778291   1.763660
    17  H    6.298841   3.096896   2.550125   8.472145   7.851899
    18  H    6.740818   2.535225   2.535028   8.982974   8.486385
    19  H    6.549737   2.548530   3.097410   8.487429   7.666195
                   16         17         18         19
    16  H    0.000000
    17  H    7.639358   0.000000
    18  H    8.473232   1.778278   0.000000
    19  H    7.854827   1.763665   1.778301   0.000000
 Stoichiometry    C6H10O3
 Framework group  C1[X(C6H10O3)]
 Deg. of freedom    51
 Full point group                 C1      NOp   1
 Largest Abelian subgroup         C1      NOp   1
 Largest concise Abelian subgroup C1      NOp   1
                         Standard orientation:                         
 ---------------------------------------------------------------------
 Center     Atomic      Atomic             Coordinates (Angstroms)
 Number     Number       Type             X           Y           Z
 ---------------------------------------------------------------------
      1          8           0        0.000007   -0.490425   -0.004478
      2          8           0       -1.348710    1.334373   -0.001376
      3          8           0        1.348730    1.334327   -0.003595
      4          6           0       -2.325388   -0.872709   -0.004246
      5          6           0        2.325409   -0.872724   -0.004707
      6          6           0       -1.218466    0.156962   -0.002176
      7          6           0        1.218445    0.156914   -0.006276
      8          6           0       -3.699713   -0.211019    0.010394
      9          6           0        3.699681   -0.210987    0.012125
     10          1           0       -2.183160   -1.509354   -0.888662
     11          1           0       -2.171848   -1.527013    0.865123
     12          1           0        2.185039   -1.510235   -0.888791
     13          1           0        2.170094   -1.526203    0.864970
     14          1           0       -4.491496   -0.967810    0.008976
     15          1           0       -3.832220    0.433639   -0.864908
     16          1           0       -3.820617    0.418094    0.898645
     17          1           0        3.818741    0.419016    0.900000
     18          1           0        4.491478   -0.967748    0.013105
     19          1           0        3.833975    0.432798   -0.863545
 ---------------------------------------------------------------------
 Rotational constants (GHZ):           5.1257547           0.7463324           0.6621285
 Standard basis: 6-311++G(d,p) (5D, 7F)
 There are   277 symmetry adapted cartesian basis functions of A   symmetry.
 There are   268 symmetry adapted basis functions of A   symmetry.
   268 basis functions,   414 primitive gaussians,   277 cartesian basis functions
    35 alpha electrons       35 beta electrons
       nuclear repulsion energy       454.4656309893 Hartrees.
 NAtoms=   19 NActive=   19 NUniq=   19 SFac= 1.00D+00 NAtFMM=   60 NAOKFM=F Big=F
 Integral buffers will be    131072 words long.
 Raffenetti 2 integral format.
 Two-electron integral symmetry is turned on.
 R6APFD:  NTU= -4 IXU= 1 FactS= 1.050
 Nuclear repulsion after empirical dispersion term =      454.4530300172 Hartrees.
 One-electron integrals computed using PRISM.
 NBasis=   268 RedAO= T EigKep=  1.05D-05  NBF=   268
 NBsUse=   268 1.00D-06 EigRej= -1.00D+00 NBFU=   268
 Initial guess from the checkpoint file:  "PPAC0147.chk"
 B after Tr=     0.000000    0.000000    0.000000
         Rot=    1.000000    0.000337    0.000013    0.000002 Ang=   0.04 deg.
 ExpMin= 3.60D-02 ExpMax= 8.59D+03 ExpMxC= 1.30D+03 IAcc=3 IRadAn=         5 AccDes= 0.00D+00
 Harris functional with IExCor= 1009 and IRadAn=       5 diagonalized for initial guess.
 HarFok:  IExCor= 1009 AccDes= 0.00D+00 IRadAn=         5 IDoV= 1 UseB2=F ITyADJ=14
 ICtDFT=  3500011 ScaDFX=  1.000000  1.000000  1.000000  1.000000
 FoFCou: FMM=F IPFlag=           0 FMFlag=      100000 FMFlg1=           0
         NFxFlg=           0 DoJE=T BraDBF=F KetDBF=T FulRan=T
         wScrn=  0.000000 ICntrl=       500 IOpCl=  0 I1Cent=   200000004 NGrid=           0
         NMat0=    1 NMatS0=      1 NMatT0=    0 NMatD0=    1 NMtDS0=    0 NMtDT0=    0
 Petite list used in FoFCou.
 Requested convergence on RMS density matrix=1.00D-08 within  32 cycles.
 Requested convergence on MAX density matrix=1.00D-06.
 Requested convergence on             energy=1.00D-06.
 No special actions if energy rises.
 SCF Done:  E(RM08HX) =  -460.343420117     A.U. after   11 cycles
            NFock= 11  Conv=0.57D-08     -V/T= 2.0041
 QCSCF skips out because SCF is already converged.
 R6APFD:  NTU= -4 IXU= 1 FactS= 1.050
 Calling FoFJK, ICntrl=      2127 FMM=F ISym2X=0 I1Cent= 0 IOpClX= 0 NMat=1 NMatS=1 NMatT=0.
 ***** Axes restored to original set *****
 -------------------------------------------------------------------
 Center     Atomic                   Forces (Hartrees/Bohr)
 Number     Number              X              Y              Z
 -------------------------------------------------------------------
      1        8           0.000017922    0.009070309   -0.000203895
      2        8           0.003332029   -0.005907371    0.000141305
      3        8          -0.003327871   -0.005908790   -0.000268879
      4        6           0.000799016   -0.000407030    0.000101200
      5        6          -0.000792869   -0.000399815   -0.000272385
      6        6          -0.000754623    0.000981135   -0.000322336
      7        6           0.000728002    0.000966955    0.000848277
      8        6          -0.000360274    0.000972193    0.000002112
      9        6           0.000363598    0.000962767   -0.000018508
     10        1          -0.000214229    0.000081626    0.000206488
     11        1          -0.000168225    0.000071185   -0.000201059
     12        1           0.000154688    0.000142252    0.000198994
     13        1           0.000226905    0.000010499   -0.000205575
     14        1           0.000029321   -0.000342980    0.000002164
     15        1          -0.000171692    0.000006280   -0.000043368
     16        1          -0.000148947    0.000015589    0.000041585
     17        1           0.000158174    0.000017529    0.000038937
     18        1          -0.000033989   -0.000337026   -0.000002165
     19        1           0.000163065    0.000004695   -0.000042893
 -------------------------------------------------------------------
 Cartesian Forces:  Max     0.009070309 RMS     0.001790400

 GradGradGradGradGradGradGradGradGradGradGradGradGradGradGradGradGradGrad
 Berny optimization.
 Using GEDIIS/GDIIS optimizer.
 FormGI is forming the generalized inverse of G from B-inverse, IUseBI=4.
 Internal  Forces:  Max     0.006238165 RMS     0.001474545
 Search for a local minimum.
 Step number   3 out of a maximum of   93
 All quantities printed in internal units (Hartrees-Bohrs-Radians)
 Mixed Optimization -- RFO/linear search
 Update second derivatives using D2CorX and points    1    2    3
 DE= -7.82D-04 DEPred=-9.72D-04 R= 8.04D-01
 TightC=F SS=  1.41D+00  RLast= 9.06D-02 DXNew= 8.4853D-01 2.7175D-01
 Trust test= 8.04D-01 RLast= 9.06D-02 DXMaxT set to 5.05D-01
 ITU=  1  1  0
 Use linear search instead of GDIIS.
     Eigenvalues ---    0.00517   0.00517   0.00597   0.00598   0.00957
     Eigenvalues ---    0.00962   0.02102   0.02104   0.04226   0.04227
     Eigenvalues ---    0.05177   0.05265   0.05647   0.05648   0.05649
     Eigenvalues ---    0.05678   0.08852   0.09427   0.12748   0.12748
     Eigenvalues ---    0.15940   0.16000   0.16000   0.16000   0.16000
     Eigenvalues ---    0.16013   0.21349   0.21865   0.23925   0.25000
     Eigenvalues ---    0.25000   0.27759   0.30481   0.30662   0.31074
     Eigenvalues ---    0.31082   0.34074   0.34214   0.34219   0.34224
     Eigenvalues ---    0.34227   0.34229   0.34230   0.34234   0.34313
     Eigenvalues ---    0.34327   0.34449   0.51184   0.56546   0.93998
     Eigenvalues ---    0.97659
 RFO step:  Lambda=-2.34781636D-04 EMin= 5.16879621D-03
 Quartic linear search produced a step of -0.17466.
 Iteration  1 RMS(Cart)=  0.01317973 RMS(Int)=  0.00005792
 Iteration  2 RMS(Cart)=  0.00014165 RMS(Int)=  0.00001421
 Iteration  3 RMS(Cart)=  0.00000001 RMS(Int)=  0.00001421
 Variable       Old X    -DE/DX   Delta X   Delta X   Delta X     New X
                                 (Linear)    (Quad)   (Total)
    R1        2.60741   0.00419   0.00056   0.00541   0.00597   2.61337
    R2        2.60730   0.00421   0.00054   0.00546   0.00600   2.61331
    R3        2.23856   0.00624   0.00217   0.00231   0.00448   2.24304
    R4        2.23857   0.00624   0.00217   0.00231   0.00448   2.24305
    R5        2.85687   0.00010  -0.00013   0.00045   0.00032   2.85719
    R6        2.88257  -0.00087   0.00080  -0.00352  -0.00271   2.87986
    R7        2.07675  -0.00009  -0.00023   0.00013  -0.00011   2.07665
    R8        2.07654  -0.00009  -0.00021   0.00009  -0.00012   2.07643
    R9        2.85688   0.00010  -0.00013   0.00045   0.00032   2.85720
   R10        2.88256  -0.00087   0.00080  -0.00351  -0.00271   2.87985
   R11        2.07675  -0.00006  -0.00023   0.00019  -0.00003   2.07671
   R12        2.07655  -0.00012  -0.00021   0.00002  -0.00019   2.07636
   R13        2.06979  -0.00022   0.00005  -0.00058  -0.00053   2.06927
   R14        2.06948   0.00001   0.00005  -0.00005  -0.00000   2.06948
   R15        2.06956   0.00001   0.00004  -0.00004  -0.00000   2.06956
   R16        2.06957   0.00000   0.00004  -0.00005  -0.00001   2.06956
   R17        2.06977  -0.00021   0.00006  -0.00057  -0.00051   2.06926
   R18        2.06948   0.00001   0.00005  -0.00005  -0.00000   2.06948
    A1        2.16485   0.00005   0.00779  -0.01247  -0.00468   2.16017
    A2        1.94359   0.00008   0.00095  -0.00056   0.00038   1.94398
    A3        1.87644  -0.00014   0.00018  -0.00124  -0.00105   1.87539
    A4        1.87775  -0.00010   0.00014  -0.00081  -0.00068   1.87707
    A5        1.95586   0.00015  -0.00207   0.00502   0.00295   1.95882
    A6        1.95691   0.00012  -0.00217   0.00512   0.00295   1.95986
    A7        1.84800  -0.00015   0.00321  -0.00828  -0.00506   1.84294
    A8        1.94360   0.00008   0.00096  -0.00060   0.00036   1.94397
    A9        1.87625  -0.00006   0.00024  -0.00064  -0.00040   1.87585
   A10        1.87796  -0.00018   0.00007  -0.00139  -0.00132   1.87664
   A11        1.95585   0.00010  -0.00208   0.00489   0.00282   1.95867
   A12        1.95691   0.00018  -0.00216   0.00524   0.00308   1.95999
   A13        1.84798  -0.00015   0.00320  -0.00825  -0.00505   1.84294
   A14        2.16935   0.00452   0.00466   0.00675   0.01140   2.18075
   A15        1.90395  -0.00309   0.00025  -0.01001  -0.00977   1.89418
   A16        2.20988  -0.00144  -0.00491   0.00327  -0.00164   2.20824
   A17        2.16936   0.00452   0.00466   0.00677   0.01137   2.18073
   A18        1.90401  -0.00309   0.00025  -0.01001  -0.00982   1.89419
   A19        2.20981  -0.00143  -0.00491   0.00333  -0.00164   2.20817
   A20        1.93004   0.00050  -0.00029   0.00351   0.00322   1.93327
   A21        1.93552  -0.00030   0.00068  -0.00287  -0.00220   1.93333
   A22        1.93524  -0.00026   0.00065  -0.00264  -0.00200   1.93325
   A23        1.89466  -0.00005  -0.00061   0.00136   0.00075   1.89541
   A24        1.89458  -0.00006  -0.00059   0.00127   0.00068   1.89526
   A25        1.87208   0.00017   0.00012  -0.00060  -0.00048   1.87161
[...]
 019997,0.00163658,0.00053051,-0.02327395,0.55143047,-0.00454736,0.0012
 4086,0.01203345,0.01223767,0.03118737,0.01214981,0.00052415,-0.0002952
 7,0.00002474,0.01329067,0.00548292,0.54491095,-0.04039521,0.01427933,0
 .00502359,0.00014020,0.00274342,-0.00136215,0.00804876,0.00580869,0.00
 324150,-0.00117501,0.00098475,-0.00071412,0.49318217,-0.01909598,0.013
 55847,-0.00362700,0.00021851,0.00162805,-0.00058530,0.02808740,-0.0350
 8212,-0.03096253,-0.00101049,0.00069707,-0.00038079,0.02357871,0.55114
 734,-0.00386733,-0.00135036,0.01221145,0.00051168,0.00024452,0.0000428
 7,0.01139240,-0.02968426,0.01410989,-0.00067356,0.00031379,-0.00105235
 ,0.01269150,-0.00569234,0.54521679,-0.15339699,0.02681182,-0.01310787,
 -0.11086873,-0.02236778,0.00863940,0.01060217,0.02426394,0.00813786,-0
 .15820757,-0.05515386,0.02979590,0.00184336,-0.00289619,-0.00278023,0.
 51622685,-0.00957264,-0.12455562,0.00648320,0.00379444,-0.68233260,0.2
 8831515,-0.00233609,-0.02936577,-0.00632305,-0.05178721,-0.11146899,0.
 00998564,-0.00763386,-0.00473135,-0.00028072,0.05594859,0.90171067,-0.
 00058126,0.00797856,-0.06065739,0.00011164,0.29340226,-0.21629318,-0.0
 0144526,0.00659209,-0.00058604,0.02846094,0.00822769,-0.09958358,0.004
 32600,0.00223147,0.00336532,-0.02747661,-0.31649539,0.38589778,-0.1531
 6241,-0.02716461,-0.01188119,0.01060179,-0.02395384,0.00895097,-0.1108
 2784,0.02278641,0.00805615,0.00184455,0.00280342,-0.00289133,-0.158262
 59,0.05605150,0.02818139,-0.08622789,0.02184802,-0.00828371,0.51600238
 ,0.00961187,-0.12489897,-0.00420757,0.00231232,-0.02935329,0.00729796,
 -0.00364671,-0.70077468,-0.27288628,0.00777933,-0.00476835,0.00057314,
 0.05265067,-0.11194893,-0.00967716,-0.02225522,0.06756950,-0.01095293,
 -0.05684051,0.92159544,-0.00057541,-0.00563717,-0.06027513,-0.00153143
 ,-0.00561125,-0.00064486,0.00039586,-0.27803676,-0.19814281,0.00404237
 ,-0.00193263,0.00344399,0.02695623,-0.00792615,-0.09914356,-0.00752500
 ,0.00839693,-0.00569441,-0.02634877,0.29942767,0.36632030,-0.00392642,
 -0.00204883,0.00002210,0.00040265,0.00425322,-0.00197098,0.00007717,-0
 .00042262,-0.00013868,-0.17656148,0.04889773,-0.02526983,-0.00022485,-
 0.00022884,-0.00011797,-0.03280710,0.00683926,-0.00326309,0.00020741,0
 .00147856,0.00068296,0.51375859,-0.00790259,-0.00183697,0.00110058,-0.
 00220161,-0.00106446,-0.00014640,-0.00015438,-0.00069979,-0.00034253,0
 .05324624,-0.10827790,0.01408345,-0.00044977,-0.00030276,-0.00019090,-
 0.01175285,0.01124011,-0.00635916,0.00047414,0.00210146,0.00110021,0.0
 3898541,0.55862336,0.00468596,0.00183395,0.00157439,0.00135109,-0.0002
 6117,-0.00135405,0.00020396,0.00048880,0.00027135,-0.02763514,0.014223
 60,-0.08708386,0.00022379,0.00019900,0.00001615,0.00691579,-0.00638569
 ,0.00227627,-0.00019323,-0.00101329,-0.00034284,-0.01979786,0.00658690
 ,0.56745478,-0.00392458,0.00204076,-0.00003532,0.00007755,0.00041714,-
 0.00015189,0.00040819,-0.00431077,-0.00183739,-0.00022522,0.00022409,-
 0.00012709,-0.17654883,-0.04979449,-0.02344242,0.00020702,-0.00145344,
 0.00073691,-0.03280488,-0.00698058,-0.00296549,-0.00005186,-0.00009908
 ,0.00004687,0.51373163,0.00804796,-0.00191326,-0.00100246,0.00016123,-
 0.00070393,0.00037457,0.00224631,-0.00105096,0.00012953,0.00045639,-0.
 00030081,0.00020361,-0.05421766,-0.10928863,-0.01327317,-0.00048476,0.
 00209385,-0.00118551,0.01193339,0.01164162,0.00602169,0.00010038,0.000
 17494,-0.00008413,-0.03965987,0.55812426,0.00444230,-0.00172183,0.0016
 6520,0.00019796,-0.00045725,0.00027660,0.00127097,0.00026360,-0.001366
 31,0.00021057,-0.00018908,0.00001834,-0.02566496,-0.01342303,-0.086083
 46,-0.00017624,0.00093799,-0.00034841,0.00660095,0.00611035,0.00186582
 ,0.00004395,0.00007712,-0.00005856,-0.01838229,-0.00620711,0.56798352,
 -0.00227609,-0.00001149,-0.00227457,-0.00252979,-0.00471328,-0.0019383
 8,-0.00006896,-0.00009715,-0.00018324,-0.04944250,0.00282351,-0.023483
 59,0.00003952,-0.00005127,0.00028962,0.00570523,0.00008160,0.02918248,
 0.00062431,0.00038805,-0.00052245,-0.00269051,0.00371189,-0.03006715,0
 .00000257,-0.00000252,0.00000322,0.05474676,0.00076803,-0.00030325,-0.
 00183698,-0.00299113,-0.00350901,-0.00176934,0.00010431,-0.00001431,-0
 .00022370,0.00320584,-0.04518733,0.03584677,0.00004718,-0.00001150,0.0
 0011194,0.00220294,-0.00404485,0.02319770,-0.00021097,0.00012309,-0.00
 007882,0.00110474,-0.00216732,0.01344450,0.00001015,-0.00003376,0.0000
 1637,-0.00403802,0.05125663,0.00004332,-0.00034654,0.00192065,0.001750
 70,-0.00019589,0.00103877,0.00005377,-0.00025388,0.00000041,-0.0245814
 4,0.03423307,-0.29770726,-0.00000454,0.00007767,-0.00009734,-0.0027433
 2,0.00246318,-0.01307950,0.00076424,0.00048284,0.00019830,-0.00112769,
 0.00056385,-0.00374784,0.00000636,0.00000644,0.00000426,0.02792056,-0.
 03964001,0.32304520,-0.00180659,0.00216214,0.00210747,-0.00311982,-0.0
 0146534,0.00525861,-0.00013103,0.00034198,0.00014578,-0.04940444,0.017
 38957,0.00817926,0.00001253,0.00000856,-0.00000617,0.00567858,-0.02392
 231,-0.01677100,0.00052205,-0.00047449,-0.00026877,-0.00190661,0.02732
 716,0.01319220,-0.00001684,0.00002311,-0.00000665,-0.00052730,-0.00169
 375,-0.00077548,0.05429408,0.00133643,0.00164992,0.00113663,-0.0034764
 7,0.00027619,0.00237270,0.00023158,0.00063084,0.00023369,0.01707963,-0
 .25874221,-0.10189324,-0.00002125,-0.00000438,-0.00004793,0.00344372,-
 0.02111091,-0.00904368,-0.00096408,-0.00052282,0.00007092,0.00124292,-
 0.00983822,-0.00437344,-0.00000838,-0.00000431,-0.00000172,-0.00010587
 ,0.00409565,0.00210309,-0.02069551,0.28277514,-0.00067050,-0.00022807,
 -0.00067532,0.00191384,0.00126034,-0.00276077,0.00003271,0.00005155,0.
 00006982,0.00796792,-0.10102230,-0.08741672,-0.00002295,-0.00004148,0.
 00006832,-0.00024240,0.01197510,0.00494936,-0.00016478,0.00009163,-0.0
 0016345,0.00012390,0.00810440,0.00336934,-0.00000845,0.00002240,-0.000
 01155,0.00101972,-0.02952108,-0.01355522,-0.00945483,0.10819453,0.0952
 1846,-0.00180015,-0.00210183,0.00218274,-0.00013092,-0.00033715,0.0001
 5760,-0.00310800,0.00162394,0.00521458,0.00001310,-0.00000939,-0.00000
 508,-0.04933096,-0.01663265,0.00849861,0.00052391,0.00046780,-0.000287
 23,0.00561415,0.02337805,-0.01754933,-0.00001663,-0.00002315,-0.000006
 20,-0.00184272,-0.02689320,0.01407759,-0.00000555,0.00003048,0.0000009
 3,-0.00003893,-0.00001904,-0.00002755,0.05419989,-0.00136193,0.0016141
 8,-0.00121283,-0.00023024,0.00061923,-0.00025285,0.00352506,0.00016694
 ,-0.00246673,0.00001994,-0.00000081,0.00005000,-0.01633203,-0.25205970
 ,0.10725026,0.00095739,-0.00052653,-0.00005412,-0.00339050,-0.02116281
 ,0.00987347,0.00000798,-0.00000520,0.00000172,-0.00121659,-0.00997619,
 0.00482050,-0.00000083,-0.00001870,-0.00001078,0.00001805,0.00000975,0
 .00000843,0.01985592,0.27565140,-0.00062106,0.00015960,-0.00065087,0.0
 0004042,-0.00006990,0.00007978,0.00180377,-0.00135438,-0.00265768,-0.0
 0002417,0.00004399,0.00006494,0.00827906,0.10637327,-0.09417833,-0.000
 19773,-0.00007993,-0.00015730,-0.00012218,-0.01119040,0.00506019,-0.00
 000873,-0.00002275,-0.00001077,0.00018747,-0.00760930,0.00344120,-0.00
 000499,-0.00000772,-0.00000167,-0.00002814,-0.00000897,-0.00000489,-0.
 00986651,-0.11406713,0.10244244,-0.00227265,-0.00006105,-0.00227068,-0
 .00006758,0.00009048,-0.00018955,-0.00254134,0.00465418,-0.00208316,0.
 00003798,0.00006178,0.00028777,-0.04956730,-0.00367800,-0.02393924,0.0
 0062167,-0.00040747,-0.00050331,0.00576896,0.00086326,0.02915447,0.000
 00237,0.00000232,0.00000334,-0.00275433,-0.00468532,-0.02991590,-0.000
 04224,-0.00002188,-0.00000597,-0.00000548,0.00000054,-0.00000499,-0.00
 052655,0.00012362,0.00094813,0.05488076,-0.00076771,-0.00023545,0.0019
 1029,-0.00010424,0.00000119,0.00022558,0.00305409,-0.00343230,0.001904
 68,-0.00004648,-0.00001862,-0.00011377,-0.00410108,-0.04771398,-0.0439
 2559,0.00024057,0.00011322,0.00007644,-0.00233410,-0.00488613,-0.02342
 659,-0.00000971,-0.00003435,-0.00001531,-0.00117538,-0.00262731,-0.013
 51104,0.00002147,0.00001195,-0.00001618,-0.00003060,-0.00001819,0.0000
 0816,0.00173036,0.00496322,0.02892032,0.00505131,0.05410811,0.00007599
 ,0.00041721,0.00185496,0.00005748,0.00025397,-0.00001440,0.00166164,0.
 00033233,0.00097269,-0.00000225,-0.00008080,-0.00009107,-0.02502460,-0
 .04231055,-0.29505631,0.00075842,-0.00047882,0.00021001,-0.00271163,-0
 .00273650,-0.01231240,0.00000683,-0.00000500,0.00000490,-0.00109287,-0
 .00059114,-0.00321758,-0.00000661,0.00001558,-0.00000751,0.00000204,0.
 00001144,-0.00000236,-0.00086029,-0.00270282,-0.01442184,0.02837513,0.
 04833267,0.32006093,-0.00340847,-0.00098201,0.00006379,0.00024466,-0.0
 0017019,0.00011958,-0.00021464,-0.00045628,-0.00020590,-0.02074951,-0.
 01702569,0.00965768,-0.00019237,-0.00011742,-0.00006170,-0.00151531,0.
 00428576,-0.00225295,0.00080160,0.00106324,0.00047512,-0.20178195,-0.1
 1487082,0.06602999,-0.00003788,0.00008463,0.00003761,0.00063364,-0.000
 45736,-0.00043940,0.00061157,0.00014443,0.00059163,-0.00000588,-0.0000
 0608,-0.00000336,-0.00000109,-0.00001175,-0.00000848,0.22097716,0.0012
 2724,0.00082535,-0.00012326,-0.00107992,0.00113489,-0.00036575,-0.0000
 5122,0.00015182,0.00005152,0.01390161,0.00943780,-0.00615155,0.0000801
 6,0.00007096,0.00003824,0.00264469,-0.00339694,0.00180178,0.00018063,-
 0.00039680,-0.00018192,-0.11677924,-0.13257385,0.04917127,0.00001941,-
 0.00002633,-0.00001026,-0.00087593,0.00045235,-0.00002647,-0.00057837,
 0.00049915,-0.00048141,-0.00000231,0.00000067,0.00000364,-0.00000337,0
 .00000082,-0.00000154,0.12398432,0.14032809,-0.00065264,-0.00032524,0.
 00017829,0.00046092,-0.00040595,0.00053487,0.00001790,-0.00007708,-0.0
 0003324,-0.00712640,-0.00559265,0.00181266,-0.00004134,-0.00003545,-0.
 00002731,-0.00144093,0.00178739,-0.00051720,-0.00006169,0.00020355,0.0
 0012376,0.06709730,0.04918253,-0.07535401,-0.00000933,0.00001304,0.000
 00600,0.00013443,-0.00053323,0.00020450,0.00062402,0.00001986,0.000077
 11,0.00000183,0.00000267,0.00000337,0.00000016,0.00000419,-0.00000096,
 -0.07139196,-0.05461588,0.07661489,0.00037963,-0.00063442,-0.00000530,
 0.00022866,-0.00156675,0.00019634,0.00004788,-0.00019804,-0.00008797,-
 0.00296644,0.02803773,0.01397657,0.00000898,-0.00000551,-0.00000912,0.
 00032578,0.00315944,-0.00009767,-0.00002162,0.00013580,0.00007295,-0.0
 4668491,0.01113663,0.00481239,0.00000549,-0.00001250,-0.00000298,0.001
 19183,-0.00039993,-0.00013581,-0.00536447,0.00189164,-0.00143454,0.000
 01912,-0.00000481,0.00000860,0.00001050,0.00000698,-0.00000551,0.00192
 593,-0.02135842,-0.01216249,0.05186547,0.00046976,0.00028023,-0.000061
 86,-0.00036578,0.00088977,-0.00027059,0.00006414,0.00017806,0.00011455
 ,0.00163726,-0.01234704,-0.00552468,0.00003270,0.00001836,0.00001362,-
 0.00105219,-0.00103131,0.00075895,-0.00028474,-0.00026839,-0.00014015,
 0.01377546,-0.26552502,-0.10557409,0.00000176,-0.00000999,-0.00000883,
 -0.00000309,-0.00000950,0.00024344,0.00213606,0.00030540,0.00120994,-0
 .00000852,0.00000450,-0.00000614,-0.00000691,-0.00000076,0.00000783,0.
 00185992,-0.01390155,-0.00735608,-0.01766563,0.28688094,-0.00029328,0.
 00035533,-0.00024311,-0.00056457,0.00071287,-0.00022091,-0.00007369,-0
 .00003119,-0.00006125,-0.00041165,0.00924349,0.00351151,-0.00000975,-0
 .00000254,0.00001350,0.00041273,-0.00170773,0.00070120,0.00023488,0.00
 004463,0.00000475,0.00626537,-0.10578952,-0.09677829,-0.00000150,0.000
 00473,0.00000787,0.00063124,0.00038517,0.00041323,-0.00184463,0.000936
 31,0.00045360,-0.00000059,-0.00000134,0.00000086,-0.00000311,-0.000002
 40,-0.00000210,-0.00151802,0.01100391,0.00428468,-0.00446290,0.1139562
 4,0.10059559,0.00035097,-0.00033943,0.00063057,0.00035367,-0.00110501,
 0.00107926,0.00003663,-0.00004531,0.00003064,-0.00386667,0.00319225,-0
 .03080122,0.00000390,0.00002634,-0.00003541,0.00048578,0.00190133,-0.0
 0244442,0.00002125,0.00003239,-0.00000302,-0.04776328,0.00263664,-0.01
 980205,-0.00000027,-0.00000483,-0.00000041,-0.00536618,0.00233554,-0.0
 0071478,0.00118217,-0.00009516,0.00037711,0.00000738,-0.00000382,-0.00
 000065,-0.00000428,0.00000068,0.00000267,0.00274863,-0.00131975,0.0245
 5571,-0.00096805,-0.00060267,0.00164186,0.05277753,0.00040774,-0.00020
 050,-0.00005475,0.00042869,0.00001100,0.00016842,0.00008199,0.00006449
 ,0.00005027,0.00164217,-0.00277469,0.01576391,0.00002842,-0.00000038,0
 .00000190,-0.00099490,0.00065618,-0.00057473,-0.00032828,-0.00015156,-
 0.00004075,0.00282991,-0.04976714,0.03172428,0.00000458,-0.00001059,-0
 .00001188,0.00286941,-0.00064866,0.00032239,-0.00055554,-0.00001193,0.
 00037241,0.00000160,0.00000576,0.00000682,0.00000661,0.00000870,-0.000
 00041,0.00270292,-0.00261405,0.01773243,-0.00252041,0.00452999,-0.0291
 0640,-0.00661004,0.05090085,-0.00034264,-0.00045964,0.00004718,0.00034
 604,-0.00098110,0.00068330,-0.00003438,-0.00007403,-0.00000128,-0.0009
 6064,0.00046544,-0.00501214,-0.00002656,-0.00000288,-0.00001005,0.0007
 5192,0.00177160,-0.00065410,0.00012099,0.00015192,0.00004258,-0.022533
 58,0.03208340,-0.31025673,-0.00000415,0.00001077,0.00000624,-0.0006911
 8,0.00059563,0.00137150,-0.00035579,0.00028600,0.00038206,0.00000123,-
 0.00000551,-0.00000204,-0.00000610,0.00000071,0.00000233,-0.00107880,-
 0.00011453,-0.00790622,-0.00066245,0.00263358,-0.01267737,0.02548062,-
 0.03635681,0.33398630,0.00037597,0.00063347,-0.00002915,0.00004797,0.0
 0019544,-0.00009503,0.00022680,0.00156871,0.00014485,0.00000893,0.0000
 0541,-0.00000923,-0.00290480,-0.02757411,0.01489528,-0.00002087,-0.000
 13461,0.00007792,0.00033245,-0.00315430,0.00000594,0.00000545,0.000012
 37,-0.00000328,-0.04663750,-0.01052712,0.00494205,0.00001048,-0.000007
 09,-0.00000524,0.00001911,0.00000514,0.00000845,-0.00536975,-0.0019454
 7,-0.00135816,0.00119627,0.00039775,-0.00015038,0.00000709,0.00000134,
 -0.00000207,-0.00000645,0.00000233,0.00000211,-0.00000444,-0.00000189,
 -0.00000022,0.05180355,-0.00047933,0.00027032,0.00004508,-0.00006646,0
 .00017545,-0.00012268,0.00034420,0.00087594,0.00023546,-0.00003298,0.0
 0001791,-0.00001398,-0.00162480,-0.01248048,0.00606381,0.00029279,-0.0
 0026523,0.00015013,0.00106486,-0.00099917,-0.00070608,-0.00000181,-0.0
 0000983,0.00000942,-0.01311450,-0.25845319,0.11089614,0.00000685,-0.00
 000091,-0.00000785,0.00000850,0.00000475,0.00000604,-0.00220563,0.0002
 3126,-0.00119861,0.00002608,-0.00002794,-0.00022914,-0.00000802,0.0000
 0086,-0.00000045,-0.00000227,0.00000350,-0.00000044,-0.00000229,0.0000
 0185,-0.00000371,0.01702569,0.27925710,-0.00027824,-0.00037286,-0.0002
 3276,-0.00007156,0.00002313,-0.00005839,-0.00057648,-0.00075229,-0.000
 20341,-0.00000876,0.00000245,0.00001391,-0.00033549,-0.00866431,0.0035
 8468,0.00022527,-0.00003556,0.00000160,0.00037711,0.00176954,0.0006668
 6,-0.00000146,-0.00000419,0.00000771,0.00647805,0.11110785,-0.10391124
 ,-0.00000336,0.00000235,-0.00000192,-0.00000090,0.00000118,0.00000062,
 -0.00176174,-0.00092736,0.00052991,0.00063050,-0.00037048,0.00043261,-
 0.00000497,-0.00000102,0.00000025,0.00000220,0.00000025,-0.00000229,0.
 00000079,0.00000202,-0.00000161,-0.00479777,-0.11984167,0.10828518,-0.
 00340897,0.00097892,0.00003626,-0.00021476,0.00044915,-0.00022106,0.00
 024457,0.00017394,0.00011456,-0.00019238,0.00011485,-0.00006645,-0.020
 74843,0.01731116,0.00913871,0.00080280,-0.00104621,0.00051369,-0.00151
 457,-0.00435695,-0.00210926,-0.00003786,-0.00008345,0.00004019,-0.2017
 5031,0.11679734,0.06255225,-0.00000102,0.00001149,-0.00000890,-0.00000
 599,0.00000587,-0.00000350,0.00061454,-0.00012425,0.00059470,0.0006295
 1,0.00044259,-0.00045524,-0.00004571,0.00000881,-0.00000323,0.00000711
 ,0.00000785,-0.00000522,0.00000250,0.00001041,-0.00000736,0.00187565,-
 0.00187446,-0.00143998,0.22094514,-0.00125281,0.00083781,0.00010417,0.
 00005157,0.00015302,-0.00005793,0.00109204,0.00116000,0.00034347,-0.00
 008173,0.00007068,-0.00004214,-0.01414597,0.00981685,0.00593149,-0.000
 18104,-0.00039836,0.00020100,-0.00269079,-0.00351475,-0.00170064,-0.00
 001976,-0.00002654,0.00001126,0.11874085,-0.13549194,-0.04738532,0.000
 00348,0.00000082,0.00000143,0.00000231,0.00000043,-0.00000351,0.000599
 13,0.00051534,0.00046657,0.00087891,0.00047008,0.00001473,-0.00000897,
 0.00000705,-0.00000339,-0.00000139,0.00000091,0.00000100,-0.00000034,-
 0.00000027,-0.00000016,0.02094369,-0.01398347,-0.01045056,-0.12605644,
 0.14357972,-0.00060491,0.00030005,0.00016618,0.00001664,0.00007018,-0.
 00003330,0.00042641,0.00038612,0.00050923,-0.00003821,0.00003181,-0.00
 002723,-0.00662491,0.00528720,0.00143170,-0.00005691,-0.00018425,0.000
 12317,-0.00134755,-0.00168178,-0.00039694,-0.00000857,-0.00001180,0.00
 000591,0.06355421,-0.04738956,-0.07247130,0.00000011,-0.00000422,-0.00
 000089,0.00000173,-0.00000262,0.00000360,0.00060416,-0.00003287,0.0000
 6071,0.00010391,0.00052323,0.00018650,-0.00000284,0.00000312,-0.000000
 61,-0.00000204,0.00000040,0.00000021,-0.00000022,0.00000022,-0.0000008
 2,-0.01285777,0.00794711,0.00441502,-0.06765836,0.05261338,0.07340193,
 0.00035223,0.00036109,0.00062007,0.00003686,0.00004636,0.00002954,0.00
 035619,0.00114214,0.00104358,0.00000431,-0.00002767,-0.00003437,-0.003
 92907,-0.00419722,-0.03066603,0.00002131,-0.00003241,-0.00000307,0.000
 48088,-0.00198478,-0.00238696,-0.00000019,0.00000489,-0.00000065,-0.04
 783722,-0.00336298,-0.02022997,-0.00000422,-0.00000057,0.00000268,0.00
 000740,0.00000386,-0.00000080,0.00118394,0.00010858,0.00037354,-0.0053
 6518,-0.00236474,-0.00062233,0.00000252,0.00000033,-0.00000021,-0.0000
 0446,0.00000230,0.00000072,0.00000276,-0.00000337,0.00000306,-0.000965
 89,0.00064359,0.00156676,0.00279819,0.00212724,0.02449514,0.05285964,-
 0.00041840,-0.00018338,0.00006349,-0.00008304,0.00006531,-0.00005259,-
 0.00041659,0.00003843,-0.00014448,-0.00002922,-0.00000041,-0.00000224,
 -0.00170761,-0.00331287,-0.01584713,0.00033235,-0.00015506,0.00004745,
 0.00102006,0.00061553,0.00052803,-0.00000474,-0.00001052,0.00001242,-0
 .00364567,-0.05214346,-0.04019473,-0.00000681,0.00000863,0.00000020,-0
 .00000151,0.00000573,-0.00000708,0.00054559,-0.00003232,-0.00035899,-0
 .00289509,-0.00068227,-0.00024904,-0.00001064,-0.00000029,-0.00000026,
 0.00000188,0.00000191,-0.00000213,0.00000348,0.00000094,-0.00000066,0.
 00255322,0.00538127,0.02851153,-0.00277064,-0.00319738,-0.01785573,0.0
 0753337,0.05360020,-0.00033033,0.00046554,0.00002942,-0.00003176,0.000
 07156,-0.00000203,0.00036012,0.00099981,0.00065253,-0.00002554,0.00000
 252,-0.00001008,-0.00091030,-0.00051427,-0.00441195,0.00010996,-0.0001
 4502,0.00004642,0.00071938,-0.00180732,-0.00061013,-0.00000398,-0.0000
 1021,0.00000614,-0.02295168,-0.04055225,-0.30780664,-0.00000587,-0.000
 00090,0.00000233,0.00000126,0.00000525,-0.00000201,-0.00037476,-0.0002
 7271,0.00040200,-0.00058140,-0.00052492,0.00140159,-0.00000701,0.00000
 013,-0.00000082,-0.00000027,0.00000359,-0.00000166,0.00000294,0.000000
 67,0.00000087,-0.00076829,-0.00322856,-0.01352671,-0.00101178,-0.00004
 487,-0.00737306,0.02580930,0.04555196,0.33120378\\0.00004921,0.0000041
 5,-0.00001876,0.00000534,-0.00001631,-0.00000573,0.00000182,0.00001043
 ,0.00000148,-0.00000492,0.00000024,0.00000346,0.00001199,0.00000431,-0
 .00001000,-0.00003147,0.00002978,0.00001579,-0.00003326,-0.00002086,0.
 00000583,-0.00001277,-0.00000212,0.00000116,0.00001210,-0.00000610,-0.
 00000243,0.00000215,0.00000053,0.00000813,-0.00000085,-0.00000517,-0.0
 0000755,0.00000122,-0.00000684,0.00001031,0.00000007,-0.00000101,-0.00
 000546,0.00000666,0.00000292,-0.00000148,0.00000056,0.00000066,0.00000
 062,0.00000091,0.00000099,0.00000037,-0.00000510,0.00000136,0.00000027
 ,-0.00000631,0.00000305,0.00000237,0.00000267,0.,0.00000162\\\@


 THERE IS NO SUBJECT, HOWEVER COMPLEX,
 WHICH, IF STUDIED WITH PATIENCE AND INTELLIGIENCE
 WILL NOT BECOME
 MORE COMPLEX
                        QUOTED BY D. GORDON ROHMAN
 Job cpu time:       0 days  1 hours 51 minutes 48.0 seconds.
 Elapsed time:       0 days  0 hours  7 minutes  1.6 seconds.
 File lengths (MBytes):  RWF=    130 Int=      0 D2E=      0 Chk=      7 Scr=      1
 Normal termination of Gaussian 16 at Sun Sep 21 11:11:39 2025.
