 Entering Gaussian System, Link 0=g16
 Input=PPUN0149.gjf
 Output=PPUN0149.log
 Initial command:
 /usr/local/g16/l1.exe "/dados_01/scratch/Gau-2199056.inp" -scrdir="/dados_01/scratch/"
 Entering Link 1 = /usr/local/g16/l1.exe PID=   2199057.
  
 Copyright (c) 1988-2017, Gaussian, Inc.  All Rights Reserved.
  
 This is part of the Gaussian(R) 16 program.  It is based on
 the Gaussian(R) 09 system (copyright 2009, Gaussian, Inc.),
 the Gaussian(R) 03 system (copyright 2003, Gaussian, Inc.),
 the Gaussian(R) 98 system (copyright 1998, Gaussian, Inc.),
 the Gaussian(R) 94 system (copyright 1995, Gaussian, Inc.),
 the Gaussian 92(TM) system (copyright 1992, Gaussian, Inc.),
 the Gaussian 90(TM) system (copyright 1990, Gaussian, Inc.),
 the Gaussian 88(TM) system (copyright 1988, Gaussian, Inc.),
 the Gaussian 86(TM) system (copyright 1986, Carnegie Mellon
 University), and the Gaussian 82(TM) system (copyright 1983,
 Carnegie Mellon University). Gaussian is a federally registered
 trademark of Gaussian, Inc.
  
 This software contains proprietary and confidential information,
 including trade secrets, belonging to Gaussian, Inc.
  
 This software is provided under written license and may be
 used, copied, transmitted, or stored only in accord with that
 written license.
  
 The following legend is applicable only to US Government
 contracts under FAR:
  
                    RESTRICTED RIGHTS LEGEND
  
 Use, reproduction and disclosure by the US Government is
 subject to restrictions as set forth in subparagraphs (a)
 and (c) of the Commercial Computer Software - Restricted
 Rights clause in FAR 52.227-19.
  
 Gaussian, Inc.
 340 Quinnipiac St., Bldg. 40, Wallingford CT 06492
  
  
 ---------------------------------------------------------------
 Warning -- This program may not be used in any manner that
 competes with the business of Gaussian, Inc. or will provide
 assistance to any competitor of Gaussian, Inc.  The licensee
 of this program is prohibited from giving any competitor of
 Gaussian, Inc. access to this program.  By using this program,
 the user acknowledges that Gaussian, Inc. is engaged in the
 business of creating and licensing software in the field of
 computational chemistry and represents and warrants to the
 licensee that it is not a competitor of Gaussian, Inc. and that
 it will not use this program in any manner prohibited above.
 ---------------------------------------------------------------
  

 Cite this work as:
 Gaussian 16, Revision B.01,
 M. J. Frisch, G. W. Trucks, H. B. Schlegel, G. E. Scuseria, 
 M. A. Robb, J. R. Cheeseman, G. Scalmani, V. Barone, 
 G. A. Petersson, H. Nakatsuji, X. Li, M. Caricato, A. V. Marenich, 
 J. Bloino, B. G. Janesko, R. Gomperts, B. Mennucci, H. P. Hratchian, 
 J. V. Ortiz, A. F. Izmaylov, J. L. Sonnenberg, D. Williams-Young, 
 F. Ding, F. Lipparini, F. Egidi, J. Goings, B. Peng, A. Petrone, 
 T. Henderson, D. Ranasinghe, V. G. Zakrzewski, J. Gao, N. Rega, 
 G. Zheng, W. Liang, M. Hada, M. Ehara, K. Toyota, R. Fukuda, 
 J. Hasegawa, M. Ishida, T. Nakajima, Y. Honda, O. Kitao, H. Nakai, 
 T. Vreven, K. Throssell, J. A. Montgomery, Jr., J. E. Peralta, 
 F. Ogliaro, M. J. Bearpark, J. J. Heyd, E. N. Brothers, K. N. Kudin, 
 V. N. Staroverov, T. A. Keith, R. Kobayashi, J. Normand, 
 K. Raghavachari, A. P. Rendell, J. C. Burant, S. S. Iyengar, 
 J. Tomasi, M. Cossi, J. M. Millam, M. Klene, C. Adamo, R. Cammi, 
 J. W. Ochterski, R. L. Martin, K. Morokuma, O. Farkas, 
 J. B. Foresman, and D. J. Fox, Gaussian, Inc., Wallingford CT, 2016.
 
 ******************************************
 Gaussian 16:  ES64L-G16RevB.01 20-Dec-2017
                21-Sep-2025 
 ******************************************
 %nprocs=16
 Will use up to   16 processors via shared memory.
 %mem=40GB
 %chk=PPUN0149.chk
 ----------------------------------------------------------------------
 # opt freq=noraman M08HX/6-311++G** scf=xqc Empiricaldispersion=pfd In
 t(Grid=ultraFine)
 ----------------------------------------------------------------------
 1/18=20,19=15,26=4,38=1/1,3;
 2/9=110,12=2,17=6,18=5,40=1/2;
 3/5=4,6=6,7=1111,11=2,25=1,30=1,71=1,74=-74,75=-5,124=11/1,2,3;
 4//1;
 5/5=2,8=3,13=1,38=5/2,8;
 6/7=2,8=2,9=2,10=2,28=1/1;
 7//1,2,3,16;
 1/18=20,19=15,26=4/3(2);
 2/9=110/2;
 99//99;
 2/9=110/2;
 3/5=4,6=6,7=1111,11=2,25=1,30=1,71=1,74=-74,75=-5,124=11/1,2,3;
 4/5=5,16=3,69=1/1;
 5/5=2,8=3,13=1,38=5/2,8;
 7//1,2,3,16;
 1/18=20,19=15,26=4/3(-5);
 2/9=110/2;
 6/7=2,8=2,9=2,10=2,19=2,28=1/1;
 99/9=1/99;
 --------
 PPUN0149
 --------
 Symbolic Z-matrix:
 Charge =  0 Multiplicity = 1
 O                     2.2361    2.5115    0.0003 
 O                     1.7918   -2.9889    0.0003 
 O                    -0.3338    2.6368   -0.0005 
 O                    -0.7749   -2.6885   -0.0008 
 O                     4.4527    0.9235   -0.0003 
 C                     0.8       0.562    -0.0002 
 C                     0.6841   -0.8296   -0.0004 
 C                    -1.7373    0.7733   -0.0004 
 C                    -1.8531   -0.6183   -0.0002 
 C                    -0.4064    1.4144   -0.0006 
 C                    -0.6468   -1.4706   -0.0001 
 C                     2.0673    1.1571    0.0004 
 C                     1.8355   -1.6262   -0.0002 
 C                     3.2121    0.3595    0.0008 
 C                    -2.8886    1.5699   -0.0001 
 C                    -3.1204   -1.2134    0.0003 
 C                     3.0964   -1.0292    0.0005 
 C                    -4.1495    0.9728    0.0005 
 C                    -4.2652   -0.4159    0.0007 
 H                    -2.8272    2.6548   -0.0002 
 H                    -3.2393   -2.2935    0.0004 
 H                     3.997    -1.6387    0.0006 
 H                    -5.0424    1.5914    0.0008 
 H                    -5.248    -0.8783    0.0012 
 H                     1.3819    2.9678   -0.0004 
 H                     2.6969   -3.3446    0.0005 
 H                     4.3486    1.8909   -0.0004 
 

 GradGradGradGradGradGradGradGradGradGradGradGradGradGradGradGradGradGrad
 Berny optimization.
 Initialization pass.
                           ----------------------------
                           !    Initial Parameters    !
                           ! (Angstroms and Degrees)  !
 --------------------------                            --------------------------
 ! Name  Definition              Value          Derivative Info.                !
 --------------------------------------------------------------------------------
 ! R1    R(1,12)                 1.3649         estimate D2E/DX2                !
 ! R2    R(1,25)                 0.9684         estimate D2E/DX2                !
 ! R3    R(2,13)                 1.3634         estimate D2E/DX2                !
 ! R4    R(2,26)                 0.9725         estimate D2E/DX2                !
 ! R5    R(3,10)                 1.2246         estimate D2E/DX2                !
 ! R6    R(4,11)                 1.2246         estimate D2E/DX2                !
 ! R7    R(5,14)                 1.3628         estimate D2E/DX2                !
 ! R8    R(5,27)                 0.973          estimate D2E/DX2                !
 ! R9    R(6,7)                  1.3964         estimate D2E/DX2                !
 ! R10   R(6,10)                 1.4772         estimate D2E/DX2                !
 ! R11   R(6,12)                 1.4001         estimate D2E/DX2                !
 ! R12   R(7,11)                 1.4772         estimate D2E/DX2                !
 ! R13   R(7,13)                 1.4001         estimate D2E/DX2                !
 ! R14   R(8,9)                  1.3964         estimate D2E/DX2                !
 ! R15   R(8,10)                 1.4773         estimate D2E/DX2                !
 ! R16   R(8,15)                 1.4            estimate D2E/DX2                !
 ! R17   R(9,11)                 1.477          estimate D2E/DX2                !
 ! R18   R(9,16)                 1.4001         estimate D2E/DX2                !
 ! R19   R(12,14)                1.3953         estimate D2E/DX2                !
 ! R20   R(13,17)                1.3951         estimate D2E/DX2                !
 ! R21   R(14,17)                1.3935         estimate D2E/DX2                !
 ! R22   R(15,18)                1.3951         estimate D2E/DX2                !
 ! R23   R(15,20)                1.0866         estimate D2E/DX2                !
 ! R24   R(16,19)                1.3952         estimate D2E/DX2                !
 ! R25   R(16,21)                1.0866         estimate D2E/DX2                !
 ! R26   R(17,22)                1.0875         estimate D2E/DX2                !
 ! R27   R(18,19)                1.3935         estimate D2E/DX2                !
 ! R28   R(18,23)                1.0862         estimate D2E/DX2                !
 ! R29   R(19,24)                1.0861         estimate D2E/DX2                !
 ! A1    A(12,1,25)            111.0062         estimate D2E/DX2                !
 ! A2    A(13,2,26)            109.6178         estimate D2E/DX2                !
 ! A3    A(14,5,27)            108.3056         estimate D2E/DX2                !
 ! A4    A(7,6,10)             120.4828         estimate D2E/DX2                !
 ! A5    A(7,6,12)             119.9148         estimate D2E/DX2                !
 ! A6    A(10,6,12)            119.6025         estimate D2E/DX2                !
 ! A7    A(6,7,11)             120.4777         estimate D2E/DX2                !
 ! A8    A(6,7,13)             119.9166         estimate D2E/DX2                !
 ! A9    A(11,7,13)            119.6056         estimate D2E/DX2                !
 ! A10   A(9,8,10)             120.4771         estimate D2E/DX2                !
 ! A11   A(9,8,15)             119.9231         estimate D2E/DX2                !
 ! A12   A(10,8,15)            119.5998         estimate D2E/DX2                !
 ! A13   A(8,9,11)             120.4859         estimate D2E/DX2                !
 ! A14   A(8,9,16)             119.9107         estimate D2E/DX2                !
 ! A15   A(11,9,16)            119.6034         estimate D2E/DX2                !
 ! A16   A(3,10,6)             121.8448         estimate D2E/DX2                !
 ! A17   A(3,10,8)             119.1192         estimate D2E/DX2                !
 ! A18   A(6,10,8)             119.036          estimate D2E/DX2                !
 ! A19   A(4,11,7)             121.7212         estimate D2E/DX2                !
 ! A20   A(4,11,9)             119.2384         estimate D2E/DX2                !
 ! A21   A(7,11,9)             119.0404         estimate D2E/DX2                !
 ! A22   A(1,12,6)             122.258          estimate D2E/DX2                !
 ! A23   A(1,12,14)            117.7613         estimate D2E/DX2                !
 ! A24   A(6,12,14)            119.9806         estimate D2E/DX2                !
 ! A25   A(2,13,7)             122.8408         estimate D2E/DX2                !
 ! A26   A(2,13,17)            117.173          estimate D2E/DX2                !
 ! A27   A(7,13,17)            119.9862         estimate D2E/DX2                !
 ! A28   A(5,14,12)            120.687          estimate D2E/DX2                !
 ! A29   A(5,14,17)            119.21           estimate D2E/DX2                !
 ! A30   A(12,14,17)           120.1029         estimate D2E/DX2                !
 ! A31   A(8,15,18)            119.9802         estimate D2E/DX2                !
 ! A32   A(8,15,20)            121.4407         estimate D2E/DX2                !
 ! A33   A(18,15,20)           118.5791         estimate D2E/DX2                !
 ! A34   A(9,16,19)            119.984          estimate D2E/DX2                !
 ! A35   A(9,16,21)            121.4358         estimate D2E/DX2                !
 ! A36   A(19,16,21)           118.5802         estimate D2E/DX2                !
 ! A37   A(13,17,14)           120.0988         estimate D2E/DX2                !
 ! A38   A(13,17,22)           120.5748         estimate D2E/DX2                !
 ! A39   A(14,17,22)           119.3264         estimate D2E/DX2                !
 ! A40   A(15,18,19)           120.1025         estimate D2E/DX2                !
 ! A41   A(15,18,23)           119.9459         estimate D2E/DX2                !
 ! A42   A(19,18,23)           119.9515         estimate D2E/DX2                !
 ! A43   A(16,19,18)           120.0995         estimate D2E/DX2                !
 ! A44   A(16,19,24)           119.9412         estimate D2E/DX2                !
 ! A45   A(18,19,24)           119.9592         estimate D2E/DX2                !
 ! D1    D(25,1,12,6)           -0.0111         estimate D2E/DX2                !
 ! D2    D(25,1,12,14)         179.9736         estimate D2E/DX2                !
 ! D3    D(26,2,13,7)         -179.9912         estimate D2E/DX2                !
 ! D4    D(26,2,13,17)          -0.0381         estimate D2E/DX2                !
 ! D5    D(27,5,14,12)           0.0556         estimate D2E/DX2                !
 ! D6    D(27,5,14,17)         179.9691         estimate D2E/DX2                !
 ! D7    D(10,6,7,11)           -0.0412         estimate D2E/DX2                !
 ! D8    D(10,6,7,13)          179.9913         estimate D2E/DX2                !
 ! D9    D(12,6,7,11)          179.9581         estimate D2E/DX2                !
 ! D10   D(12,6,7,13)           -0.0094         estimate D2E/DX2                !
 ! D11   D(7,6,10,3)          -179.9965         estimate D2E/DX2                !
 ! D12   D(7,6,10,8)             0.0361         estimate D2E/DX2                !
 ! D13   D(12,6,10,3)            0.0043         estimate D2E/DX2                !
 ! D14   D(12,6,10,8)         -179.9631         estimate D2E/DX2                !
 ! D15   D(7,6,12,1)           179.9842         estimate D2E/DX2                !
 ! D16   D(7,6,12,14)           -0.0001         estimate D2E/DX2                !
 ! D17   D(10,6,12,1)           -0.0166         estimate D2E/DX2                !
 ! D18   D(10,6,12,14)         179.9991         estimate D2E/DX2                !
 ! D19   D(6,7,11,4)           179.9707         estimate D2E/DX2                !
 ! D20   D(6,7,11,9)             0.0273         estimate D2E/DX2                !
 ! D21   D(13,7,11,4)           -0.0617         estimate D2E/DX2                !
 ! D22   D(13,7,11,9)          179.9949         estimate D2E/DX2                !
 ! D23   D(6,7,13,2)           179.9661         estimate D2E/DX2                !
 ! D24   D(6,7,13,17)            0.0143         estimate D2E/DX2                !
 ! D25   D(11,7,13,2)           -0.0017         estimate D2E/DX2                !
 ! D26   D(11,7,13,17)        -179.9535         estimate D2E/DX2                !
 ! D27   D(10,8,9,11)            0.0038         estimate D2E/DX2                !
 ! D28   D(10,8,9,16)          179.9853         estimate D2E/DX2                !
 ! D29   D(15,8,9,11)         -179.9814         estimate D2E/DX2                !
 ! D30   D(15,8,9,16)            0.0            estimate D2E/DX2                !
 ! D31   D(9,8,10,3)          -179.9854         estimate D2E/DX2                !
 ! D32   D(9,8,10,6)            -0.0171         estimate D2E/DX2                !
 ! D33   D(15,8,10,3)            0.0            estimate D2E/DX2                !
 ! D34   D(15,8,10,6)          179.9682         estimate D2E/DX2                !
 ! D35   D(9,8,15,18)            0.0048         estimate D2E/DX2                !
 ! D36   D(9,8,15,20)          179.9972         estimate D2E/DX2                !
 ! D37   D(10,8,15,18)        -179.9806         estimate D2E/DX2                !
 ! D38   D(10,8,15,20)           0.0117         estimate D2E/DX2                !
 ! D39   D(8,9,11,4)          -179.9531         estimate D2E/DX2                !
 ! D40   D(8,9,11,7)            -0.0082         estimate D2E/DX2                !
 ! D41   D(16,9,11,4)            0.0654         estimate D2E/DX2                !
 ! D42   D(16,9,11,7)         -179.9897         estimate D2E/DX2                !
 ! D43   D(8,9,16,19)           -0.0049         estimate D2E/DX2                !
 ! D44   D(8,9,16,21)          179.996          estimate D2E/DX2                !
 ! D45   D(11,9,16,19)         179.9768         estimate D2E/DX2                !
 ! D46   D(11,9,16,21)          -0.0224         estimate D2E/DX2                !
 ! D47   D(1,12,14,5)           -0.0674         estimate D2E/DX2                !
 ! D48   D(1,12,14,17)        -179.9801         estimate D2E/DX2                !
 ! D49   D(6,12,14,5)          179.9176         estimate D2E/DX2                !
 ! D50   D(6,12,14,17)           0.0049         estimate D2E/DX2                !
 ! D51   D(2,13,17,14)        -179.964          estimate D2E/DX2                !
 ! D52   D(2,13,17,22)           0.0492         estimate D2E/DX2                !
 ! D53   D(7,13,17,14)          -0.0095         estimate D2E/DX2                !
 ! D54   D(7,13,17,22)        -179.9963         estimate D2E/DX2                !
 ! D55   D(5,14,17,13)        -179.914          estimate D2E/DX2                !
 ! D56   D(5,14,17,22)           0.0729         estimate D2E/DX2                !
 ! D57   D(12,14,17,13)         -0.0001         estimate D2E/DX2                !
 ! D58   D(12,14,17,22)        179.9868         estimate D2E/DX2                !
 ! D59   D(8,15,18,19)          -0.0048         estimate D2E/DX2                !
 ! D60   D(8,15,18,23)         179.9959         estimate D2E/DX2                !
 ! D61   D(20,15,18,19)       -179.9974         estimate D2E/DX2                !
 ! D62   D(20,15,18,23)          0.0034         estimate D2E/DX2                !
 ! D63   D(9,16,19,18)           0.0049         estimate D2E/DX2                !
 ! D64   D(9,16,19,24)        -179.9932         estimate D2E/DX2                !
 ! D65   D(21,16,19,18)       -179.9959         estimate D2E/DX2                !
 ! D66   D(21,16,19,24)          0.006          estimate D2E/DX2                !
 ! D67   D(15,18,19,16)          0.0            estimate D2E/DX2                !
 ! D68   D(15,18,19,24)        179.998          estimate D2E/DX2                !
 ! D69   D(23,18,19,16)        179.9992         estimate D2E/DX2                !
 ! D70   D(23,18,19,24)         -0.0027         estimate D2E/DX2                !
 --------------------------------------------------------------------------------
 Trust Radius=3.00D-01 FncErr=1.00D-07 GrdErr=1.00D-06 EigMax=2.50D+02 EigMin=1.00D-04
 Number of steps in this run=    154 maximum allowed number of steps=    162.
 GradGradGradGradGradGradGradGradGradGradGradGradGradGradGradGradGradGrad

                          Input orientation:                          
 ---------------------------------------------------------------------
 Center     Atomic      Atomic             Coordinates (Angstroms)
 Number     Number       Type             X           Y           Z
 ---------------------------------------------------------------------
      1          8           0        2.236100    2.511500    0.000300
      2          8           0        1.791800   -2.988900    0.000300
      3          8           0       -0.333800    2.636800   -0.000500
      4          8           0       -0.774900   -2.688500   -0.000800
      5          8           0        4.452700    0.923500   -0.000300
      6          6           0        0.800000    0.562000   -0.000200
      7          6           0        0.684100   -0.829600   -0.000400
      8          6           0       -1.737300    0.773300   -0.000400
      9          6           0       -1.853100   -0.618300   -0.000200
     10          6           0       -0.406400    1.414400   -0.000600
     11          6           0       -0.646800   -1.470600   -0.000100
     12          6           0        2.067300    1.157100    0.000400
     13          6           0        1.835500   -1.626200   -0.000200
     14          6           0        3.212100    0.359500    0.000800
     15          6           0       -2.888600    1.569900   -0.000100
     16          6           0       -3.120400   -1.213400    0.000300
     17          6           0        3.096400   -1.029200    0.000500
     18          6           0       -4.149500    0.972800    0.000500
     19          6           0       -4.265200   -0.415900    0.000700
     20          1           0       -2.827200    2.654800   -0.000200
     21          1           0       -3.239300   -2.293500    0.000400
     22          1           0        3.997000   -1.638700    0.000600
     23          1           0       -5.042400    1.591400    0.000800
     24          1           0       -5.248000   -0.878300    0.001200
     25          1           0        1.381900    2.967800   -0.000400
     26          1           0        2.696900   -3.344600    0.000500
     27          1           0        4.348600    1.890900   -0.000400
 ---------------------------------------------------------------------
                    Distance matrix (angstroms):
                    1          2          3          4          5
     1  O    0.000000
     2  O    5.518315   0.000000
     3  O    2.572953   6.013874   0.000000
     4  O    6.008837   2.584219   5.343537   0.000000
     5  O    2.726731   4.731518   5.083894   6.354081   0.000000
     6  C    2.421350   3.686809   2.364381   3.611933   3.670545
     7  C    3.683973   2.426845   3.612762   2.363089   4.156405
     8  C    4.336963   5.158362   2.332905   3.593087   6.191822
     9  C    5.149486   4.347993   3.592207   2.334147   6.491553
    10  C    2.861195   4.921497   1.224554   4.119415   4.883834
    11  C    4.916120   2.872630   4.119309   1.224619   5.633526
    12  C    1.364878   4.155143   2.820424   4.781918   2.396811
    13  C    4.157047   1.363401   4.783203   2.818274   3.653862
    14  C    2.362981   3.637174   4.214203   5.018613   1.362786
    15  C    5.210486   6.533667   2.768624   4.754124   7.369703
    16  C    6.524337   5.223228   4.752808   2.770793   7.868811
    17  C    3.643717   2.354231   5.020541   4.211917   2.377517
    18  C    6.568370   7.141016   4.162747   4.979261   8.602341
    19  C    7.129977   6.580849   4.977438   4.164962   8.820191
    20  H    5.065327   7.292908   2.493465   5.723879   7.482937
    21  H    7.284781   5.078932   5.722743   2.495855   8.337623
    22  H    4.508318   2.585720   6.085699   4.886012   2.602409
    23  H    7.336426   8.227116   4.823254   6.043931   9.518562
    24  H    8.215990   7.349382   6.041961   4.825500   9.866614
    25  H    0.968436   5.970787   1.747337   6.053554   3.689034
    26  H    5.874202   0.972486   6.705393   3.533251   4.615139
    27  H    2.201772   5.509054   4.741438   6.871765   0.972985
                    6          7          8          9         10
     6  C    0.000000
     7  C    1.396418   0.000000
     8  C    2.546083   2.903871   0.000000
     9  C    2.903799   2.545983   1.396410   0.000000
    10  C    1.477155   2.494940   1.477262   2.494957   0.000000
    11  C    2.494933   1.477219   2.494850   1.477016   2.894999
    12  C    1.400069   2.420789   3.823910   4.303671   2.487046
    13  C    2.420843   1.400105   4.303777   3.823824   3.777746
    14  C    2.420585   2.793697   4.966668   5.158715   3.769132
    15  C    3.823824   4.303694   1.400023   2.420843   2.487066
    16  C    4.303671   3.823810   2.420732   1.400069   3.777715
    17  C    2.793809   2.420544   5.158843   4.966527   4.270924
    18  C    4.966519   5.158715   2.420436   2.793752   3.769059
    19  C    5.158734   4.966560   2.793649   2.420577   4.270871
    20  H    4.187648   4.946743   2.174379   3.414975   2.720085
    21  H    4.946698   4.187609   3.414860   2.174361   4.666245
    22  H    3.881223   3.410271   6.220928   5.938425   5.358298
    23  H    5.932394   6.217238   3.404846   3.880001   4.639378
    24  H    6.217135   5.932300   3.879794   3.404842   5.357011
    25  H    2.475173   3.860981   3.813822   4.829631   2.368769
    26  H    4.342782   3.221271   6.051383   5.304264   5.681422
    27  H    3.789266   4.563954   6.187666   6.690080   4.778815
                   11         12         13         14         15
    11  C    0.000000
    12  C    3.777717   0.000000
    13  C    2.487172   2.792936   0.000000
    14  C    4.270875   1.395254   2.416202   0.000000
    15  C    3.777606   4.973062   5.703698   6.219615   0.000000
    16  C    2.486936   5.703639   4.973062   6.524919   2.792936
    17  C    3.769135   2.416393   1.395091   1.393511   6.524994
    18  C    4.270727   6.219531   6.524954   7.387103   1.395134
    19  C    3.768980   6.524943   6.219595   7.517397   2.416284
    20  H    4.666162   5.118519   6.329908   6.460770   1.086636
    21  H    2.719967   6.329822   5.118485   6.975598   3.879285
    22  H    4.646842   3.397093   2.161536   2.146828   7.596486
    23  H    5.356972   7.122952   7.593317   8.345918   2.153907
    24  H    4.639166   7.593186   7.122874   8.550172   3.400067
    25  H    4.880063   1.936081   4.616339   3.186356   4.493472
    26  H    3.833041   4.545514   1.922215   3.739758   7.439766
    27  H    6.021105   2.396412   4.322692   1.907045   7.244315
                   16         17         18         19         20
    16  C    0.000000
    17  C    6.219528   0.000000
    18  C    2.416302   7.517385   0.000000
    19  C    1.395197   7.387103   1.393511   0.000000
    20  H    3.879296   6.975736   2.139533   3.390729   0.000000
    21  H    1.086625   6.460615   3.390749   2.139592   4.965430
    22  H    7.130096   1.087461   8.554846   8.352197   8.062496
    23  H    3.400145   8.550299   1.086249   2.152509   2.457220
    24  H    2.153828   8.345764   2.152504   1.086144   4.282881
    25  H    6.144358   4.349198   5.880171   6.583249   4.220722
    26  H    6.195401   2.349612   8.094019   7.553021   8.155273
    27  H    8.088426   3.177261   8.547550   8.917336   7.216346
                   21         22         23         24         25
    21  H    0.000000
    22  H    7.265865   0.000000
    23  H    4.282945   9.599182   0.000000
    24  H    2.457167   9.276219   2.478243   0.000000
    25  H    7.002626   5.297036   6.570092   7.664728   0.000000
    26  H    6.028539   2.144844   9.179371   8.318898   6.447916
    27  H    8.665185   3.547069   9.395775   9.988153   3.156109
                   26         27
    26  H    0.000000
    27  H    5.489861   0.000000
 Stoichiometry    C14H8O5
 Framework group  C1[X(C14H8O5)]
 Deg. of freedom    75
 Full point group                 C1      NOp   1
 Largest Abelian subgroup         C1      NOp   1
 Largest concise Abelian subgroup C1      NOp   1
                         Standard orientation:                         
 ---------------------------------------------------------------------
 Center     Atomic      Atomic             Coordinates (Angstroms)
 Number     Number       Type             X           Y           Z
 ---------------------------------------------------------------------
      1          8           0       -2.175576   -2.479724    0.000296
      2          8           0       -1.684046    3.016657    0.000296
      3          8           0        0.393153   -2.627094   -0.000504
      4          8           0        0.879979    2.694221   -0.000804
      5          8           0       -4.378454   -0.872743   -0.000304
      6          6           0       -0.722784   -0.542631   -0.000204
      7          6           0       -0.594935    0.847922   -0.000404
      8          6           0        1.812608   -0.775718   -0.000404
      9          6           0        1.940357    0.614836   -0.000204
     10          6           0        0.476250   -1.405362   -0.000604
     11          6           0        0.741422    1.477466   -0.000104
     12          6           0       -1.995149   -1.126824    0.000396
     13          6           0       -1.739450    1.654383   -0.000204
     14          6           0       -3.133055   -0.319420    0.000796
     15          6           0        2.957023   -1.582178   -0.000104
     16          6           0        3.212721    1.199029    0.000296
     17          6           0       -3.005431    1.068235    0.000496
     18          6           0        4.223005   -0.995930    0.000496
     19          6           0        4.350629    0.391725    0.000696
     20          1           0        2.886306   -2.666510   -0.000204
     21          1           0        3.340895    2.278067    0.000396
     22          1           0       -3.900763    1.685448    0.000596
     23          1           0        5.110558   -1.622177    0.000796
     24          1           0        5.337365    0.845666    0.001196
     25          1           0       -1.325327   -2.943344   -0.000404
     26          1           0       -2.586058    3.380118    0.000496
     27          1           0       -4.282668   -1.841001   -0.000404
 ---------------------------------------------------------------------
 Rotational constants (GHZ):           0.6993237           0.3073751           0.2135244
 Standard basis: 6-311++G(d,p) (5D, 7F)
 There are   493 symmetry adapted cartesian basis functions of A   symmetry.
 There are   474 symmetry adapted basis functions of A   symmetry.
   474 basis functions,   756 primitive gaussians,   493 cartesian basis functions
    66 alpha electrons       66 beta electrons
       nuclear repulsion energy      1368.9726854280 Hartrees.
 NAtoms=   27 NActive=   27 NUniq=   27 SFac= 1.00D+00 NAtFMM=   60 NAOKFM=F Big=F
 Integral buffers will be    131072 words long.
 Raffenetti 2 integral format.
 Two-electron integral symmetry is turned on.
 R6APFD:  NTU= -4 IXU= 1 FactS= 1.050
 Nuclear repulsion after empirical dispersion term =     1368.9483865030 Hartrees.
 One-electron integrals computed using PRISM.
 NBasis=   474 RedAO= T EigKep=  1.24D-06  NBF=   474
 NBsUse=   467 1.00D-06 EigRej=  6.43D-07 NBFU=   467
 ExpMin= 3.60D-02 ExpMax= 8.59D+03 ExpMxC= 1.30D+03 IAcc=3 IRadAn=         5 AccDes= 0.00D+00
 Harris functional with IExCor= 1009 and IRadAn=       5 diagonalized for initial guess.
 HarFok:  IExCor= 1009 AccDes= 0.00D+00 IRadAn=         5 IDoV= 1 UseB2=F ITyADJ=14
 ICtDFT=  3500011 ScaDFX=  1.000000  1.000000  1.000000  1.000000
 FoFCou: FMM=F IPFlag=           0 FMFlag=      100000 FMFlg1=           0
         NFxFlg=           0 DoJE=T BraDBF=F KetDBF=T FulRan=T
         wScrn=  0.000000 ICntrl=       500 IOpCl=  0 I1Cent=   200000004 NGrid=           0
         NMat0=    1 NMatS0=      1 NMatT0=    0 NMatD0=    1 NMtDS0=    0 NMtDT0=    0
 Petite list used in FoFCou.
 Requested convergence on RMS density matrix=1.00D-08 within  32 cycles.
 Requested convergence on MAX density matrix=1.00D-06.
 Requested convergence on             energy=1.00D-06.
 No special actions if energy rises.
 SCF Done:  E(RM08HX) =  -914.416120757     A.U. after   16 cycles
            NFock= 16  Conv=0.87D-08     -V/T= 2.0041
 QCSCF skips out because SCF is already converged.

 **********************************************************************

            Population analysis using the SCF Density.

 **********************************************************************

 Orbital symmetries:
       Occupied  (A) (A) (A) (A) (A) (A) (A) (A) (A) (A) (A) (A)
                 (A) (A) (A) (A) (A) (A) (A) (A) (A) (A) (A) (A)
                 (A) (A) (A) (A) (A) (A) (A) (A) (A) (A) (A) (A)
                 (A) (A) (A) (A) (A) (A) (A) (A) (A) (A) (A) (A)
                 (A) (A) (A) (A) (A) (A) (A) (A) (A) (A) (A) (A)
                 (A) (A) (A) (A) (A) (A)
       Virtual   (A) (A) (A) (A) (A) (A) (A) (A) (A) (A) (A) (A)
                 (A) (A) (A) (A) (A) (A) (A) (A) (A) (A) (A) (A)
                 (A) (A) (A) (A) (A) (A) (A) (A) (A) (A) (A) (A)
                 (A) (A) (A) (A) (A) (A) (A) (A) (A) (A) (A) (A)
                 (A) (A) (A) (A) (A) (A) (A) (A) (A) (A) (A) (A)
                 (A) (A) (A) (A) (A) (A) (A) (A) (A) (A) (A) (A)
                 (A) (A) (A) (A) (A) (A) (A) (A) (A) (A) (A) (A)
                 (A) (A) (A) (A) (A) (A) (A) (A) (A) (A) (A) (A)
                 (A) (A) (A) (A) (A) (A) (A) (A) (A) (A) (A) (A)
                 (A) (A) (A) (A) (A) (A) (A) (A) (A) (A) (A) (A)
                 (A) (A) (A) (A) (A) (A) (A) (A) (A) (A) (A) (A)
                 (A) (A) (A) (A) (A) (A) (A) (A) (A) (A) (A) (A)
                 (A) (A) (A) (A) (A) (A) (A) (A) (A) (A) (A) (A)
                 (A) (A) (A) (A) (A) (A) (A) (A) (A) (A) (A) (A)
                 (A) (A) (A) (A) (A) (A) (A) (A) (A) (A) (A) (A)
                 (A) (A) (A) (A) (A) (A) (A) (A) (A) (A) (A) (A)
                 (A) (A) (A) (A) (A) (A) (A) (A) (A) (A) (A) (A)
                 (A) (A) (A) (A) (A) (A) (A) (A) (A) (A) (A) (A)
                 (A) (A) (A) (A) (A) (A) (A) (A) (A) (A) (A) (A)
                 (A) (A) (A) (A) (A) (A) (A) (A) (A) (A) (A) (A)
                 (A) (A) (A) (A) (A) (A) (A) (A) (A) (A) (A) (A)
                 (A) (A) (A) (A) (A) (A) (A) (A) (A) (A) (A) (A)
                 (A) (A) (A) (A) (A) (A) (A) (A) (A) (A) (A) (A)
                 (A) (A) (A) (A) (A) (A) (A) (A) (A) (A) (A) (A)
                 (A) (A) (A) (A) (A) (A) (A) (A) (A) (A) (A) (A)
                 (A) (A) (A) (A) (A) (A) (A) (A) (A) (A) (A) (A)
                 (A) (A) (A) (A) (A) (A) (A) (A) (A) (A) (A) (A)
                 (A) (A) (A) (A) (A) (A) (A) (A) (A) (A) (A) (A)
                 (A) (A) (A) (A) (A) (A) (A) (A) (A) (A) (A) (A)
                 (A) (A) (A) (A) (A) (A) (A) (A) (A) (A) (A) (A)
                 (A) (A) (A) (A) (A) (A) (A) (A) (A) (A) (A) (A)
                 (A) (A) (A) (A) (A) (A) (A) (A) (A) (A) (A) (A)
                 (A) (A) (A) (A) (A) (A) (A) (A) (A) (A) (A) (A)
                 (A) (A) (A) (A) (A)
 The electronic state is 1-A.
 Alpha  occ. eigenvalues --  -19.66381 -19.65510 -19.65344 -19.63332 -19.60231
 Alpha  occ. eigenvalues --  -10.65864 -10.63413 -10.63183 -10.63018 -10.62809
 Alpha  occ. eigenvalues --  -10.57899 -10.57285 -10.57039 -10.56788 -10.56598
 Alpha  occ. eigenvalues --  -10.56361 -10.56273 -10.56164 -10.55985  -1.22327
 Alpha  occ. eigenvalues --   -1.20589  -1.20183  -1.18228  -1.16898  -1.01071
 Alpha  occ. eigenvalues --   -0.99482  -0.92469  -0.88277  -0.88156  -0.87300
 Alpha  occ. eigenvalues --   -0.79701  -0.77432  -0.75365  -0.72671  -0.69325
 Alpha  occ. eigenvalues --   -0.68869  -0.65276  -0.64224  -0.61883  -0.60744
 Alpha  occ. eigenvalues --   -0.59133  -0.57543  -0.56186  -0.55804  -0.54222
 Alpha  occ. eigenvalues --   -0.53843  -0.52259  -0.52126  -0.51480  -0.51080
 Alpha  occ. eigenvalues --   -0.51018  -0.48048  -0.47880  -0.47077  -0.47046
 Alpha  occ. eigenvalues --   -0.46279  -0.45051  -0.44631  -0.43291  -0.39887
 Alpha  occ. eigenvalues --   -0.36967  -0.34183  -0.33561  -0.33227  -0.32576
 Alpha  occ. eigenvalues --   -0.28462
 Alpha virt. eigenvalues --   -0.09217  -0.04305  -0.03180  -0.02644  -0.02136
 Alpha virt. eigenvalues --   -0.01408  -0.00754  -0.00167   0.00946   0.01409
 Alpha virt. eigenvalues --    0.01830   0.01929   0.02025   0.03224   0.03499
 Alpha virt. eigenvalues --    0.03985   0.04306   0.05385   0.05627   0.06331
 Alpha virt. eigenvalues --    0.06375   0.06810   0.07544   0.08453   0.08633
 Alpha virt. eigenvalues --    0.08789   0.09361   0.09666   0.10314   0.10452
 Alpha virt. eigenvalues --    0.10562   0.10822   0.11203   0.11282   0.12013
 Alpha virt. eigenvalues --    0.12596   0.12829   0.13006   0.13587   0.14240
 Alpha virt. eigenvalues --    0.14370   0.14775   0.15134   0.15236   0.15976
 Alpha virt. eigenvalues --    0.16187   0.16766   0.17313   0.18101   0.18532
 Alpha virt. eigenvalues --    0.18886   0.19728   0.19802   0.20241   0.20676
 Alpha virt. eigenvalues --    0.21116   0.21475   0.22078   0.22836   0.23661
 Alpha virt. eigenvalues --    0.24037   0.24577   0.24621   0.24774   0.25218
 Alpha virt. eigenvalues --    0.25885   0.26269   0.27030   0.27329   0.27348
 Alpha virt. eigenvalues --    0.28041   0.28150   0.28760   0.29072   0.29119
 Alpha virt. eigenvalues --    0.29312   0.29863   0.30370   0.31340   0.31957
 Alpha virt. eigenvalues --    0.32380   0.32491   0.32573   0.33149   0.33517
 Alpha virt. eigenvalues --    0.33858   0.34012   0.34261   0.34639   0.35389
 Alpha virt. eigenvalues --    0.36014   0.36188   0.37098   0.37797   0.38413
 Alpha virt. eigenvalues --    0.38649   0.39947   0.41589   0.42120   0.43760
 Alpha virt. eigenvalues --    0.44188   0.44991   0.45871   0.47623   0.48866
 Alpha virt. eigenvalues --    0.50136   0.50368   0.51666   0.53759   0.54721
 Alpha virt. eigenvalues --    0.55183   0.55696   0.56153   0.56859   0.57006
 Alpha virt. eigenvalues --    0.58122   0.59124   0.59602   0.60869   0.61742
 Alpha virt. eigenvalues --    0.62111   0.62439   0.62736   0.62799   0.63236
 Alpha virt. eigenvalues --    0.64936   0.65266   0.66278   0.66408   0.66453
 Alpha virt. eigenvalues --    0.67927   0.68108   0.68994   0.69787   0.70781
 Alpha virt. eigenvalues --    0.71190   0.72273   0.73529   0.74740   0.75325
 Alpha virt. eigenvalues --    0.75911   0.76873   0.78051   0.78186   0.79133
 Alpha virt. eigenvalues --    0.81493   0.81810   0.82659   0.84269   0.85114
 Alpha virt. eigenvalues --    0.86200   0.87560   0.88828   0.89797   0.90444
 Alpha virt. eigenvalues --    0.91330   0.91825   0.93305   0.94057   0.95024
 Alpha virt. eigenvalues --    0.96150   0.96208   0.96393   0.97810   1.00154
 Alpha virt. eigenvalues --    1.00829   1.01161   1.01700   1.02664   1.03357
 Alpha virt. eigenvalues --    1.03853   1.05469   1.06010   1.07888   1.09066
 Alpha virt. eigenvalues --    1.10416   1.11513   1.11984   1.12838   1.13280
 Alpha virt. eigenvalues --    1.13854   1.14881   1.16201   1.16788   1.18031
 Alpha virt. eigenvalues --    1.18037   1.18466   1.19532   1.22060   1.22078
 Alpha virt. eigenvalues --    1.22795   1.22992   1.25940   1.26037   1.26735
 Alpha virt. eigenvalues --    1.27064   1.28185   1.28942   1.29770   1.31825
 Alpha virt. eigenvalues --    1.34349   1.34821   1.38026   1.40669   1.42074
 Alpha virt. eigenvalues --    1.42448   1.44695   1.46529   1.47989   1.48817
 Alpha virt. eigenvalues --    1.51660   1.52490   1.53186   1.54463   1.54715
 Alpha virt. eigenvalues --    1.55160   1.56905   1.57983   1.58788   1.60721
 Alpha virt. eigenvalues --    1.61889   1.63172   1.64392   1.65988   1.66725
 Alpha virt. eigenvalues --    1.66791   1.67580   1.69195   1.69760   1.74205
 Alpha virt. eigenvalues --    1.75509   1.76821   1.77609   1.77782   1.79183
 Alpha virt. eigenvalues --    1.79588   1.82120   1.84922   1.85053   1.85683
 Alpha virt. eigenvalues --    1.87669   1.89732   1.92240   1.93087   1.93615
 Alpha virt. eigenvalues --    1.93770   1.94384   1.94950   1.96641   1.97367
 Alpha virt. eigenvalues --    1.99173   1.99573   2.00113   2.00432   2.00913
 Alpha virt. eigenvalues --    2.03119   2.06066   2.07864   2.09269   2.09792
 Alpha virt. eigenvalues --    2.10900   2.12355   2.14214   2.15601   2.16622
 Alpha virt. eigenvalues --    2.16793   2.20381   2.20649   2.27541   2.30169
 Alpha virt. eigenvalues --    2.31708   2.33247   2.36863   2.37208   2.39800
 Alpha virt. eigenvalues --    2.40085   2.43561   2.46468   2.47968   2.48798
 Alpha virt. eigenvalues --    2.52977   2.54543   2.61867   2.62892   2.65361
 Alpha virt. eigenvalues --    2.66997   2.67280   2.67613   2.68059   2.69707
 Alpha virt. eigenvalues --    2.69878   2.71730   2.72191   2.73637   2.74254
 Alpha virt. eigenvalues --    2.74971   2.77025   2.78618   2.80129   2.82203
 Alpha virt. eigenvalues --    2.83896   2.85914   2.88301   2.88627   2.91140
 Alpha virt. eigenvalues --    2.91927   2.92935   2.95339   3.00055   3.00362
 Alpha virt. eigenvalues --    3.03853   3.05967   3.07757   3.07876   3.12692
 Alpha virt. eigenvalues --    3.13719   3.15293   3.15590   3.16446   3.16926
 Alpha virt. eigenvalues --    3.18477   3.19785   3.21379   3.22004   3.25156
 Alpha virt. eigenvalues --    3.26289   3.27846   3.28096   3.30331   3.31645
 Alpha virt. eigenvalues --    3.34712   3.39966   3.41638   3.42824   3.43924
 Alpha virt. eigenvalues --    3.46824   3.47649   3.50105   3.52452   3.55421
 Alpha virt. eigenvalues --    3.57106   3.57813   3.60005   3.61278   3.65660
 Alpha virt. eigenvalues --    3.66575   3.72342   3.75609   3.81922   3.88585
 Alpha virt. eigenvalues --    3.89249   3.94191   3.97156   3.97506   4.01402
 Alpha virt. eigenvalues --    4.06525   4.10610   4.16476   4.23197   4.23997
 Alpha virt. eigenvalues --    4.28239   4.33049   4.36907   4.53329   4.86122
 Alpha virt. eigenvalues --    4.91122   4.93920   5.08169   5.12485   5.13550
 Alpha virt. eigenvalues --    5.16325   5.17691   5.40128   5.44606   5.53117
 Alpha virt. eigenvalues --    5.58497   5.62431   5.78267   5.85040   5.87519
 Alpha virt. eigenvalues --    5.94072   5.95038  23.54561  23.68982  23.92312
 Alpha virt. eigenvalues --   23.93756  23.95396  23.99297  23.99726  24.01410
 Alpha virt. eigenvalues --   24.05778  24.09512  24.11974  24.13114  24.17945
 Alpha virt. eigenvalues --   24.21500  49.92270  49.96925  50.01314  50.05625
 Alpha virt. eigenvalues --   50.10700
          Condensed to atoms (all electrons):
               1          2          3          4          5          6
     1  O    8.118823   0.000479   0.009278  -0.000084   0.020496   0.405666
     2  O    0.000479   8.012225  -0.000098   0.048568  -0.001373  -0.078607
     3  O    0.009278  -0.000098   8.050876   0.000261  -0.000300   0.260445
     4  O   -0.000084   0.048568   0.000261   7.969637  -0.000066  -0.314158
     5  O    0.020496  -0.001373  -0.000300  -0.000066   7.909346  -0.022026
     6  C    0.405666  -0.078607   0.260445  -0.314158  -0.022026  24.737542
     7  C    0.123442  -0.593419  -0.328840   0.229436  -0.005015  -0.853258
     8  C   -0.060903  -0.026278  -0.353369  -0.693606   0.012119   3.676067
     9  C    0.025088   0.083821  -0.701012  -0.344145  -0.004184 -10.705910
    10  C   -0.069856   0.014675   0.818899  -0.033775   0.023224   0.688052
    11  C    0.053291   0.059498  -0.020717   0.859702  -0.002196   2.582525
    12  C    0.569571  -0.005002   0.113918  -0.040857   0.032302   2.099680
    13  C   -0.009264  -0.061970  -0.042148   0.151839   0.035185  -2.640438
    14  C   -1.007464   0.060954  -0.016254   0.010529   0.620107  -7.754744
    15  C    0.006461   0.002144   0.264127  -0.013966   0.001560  -0.363069
    16  C    0.001408   0.026821  -0.025296   0.243622   0.000030  -2.688538
    17  C   -0.125124   0.480712   0.020586   0.031874  -0.652717  -3.239665
    18  C    0.003391   0.000908   0.047723  -0.004548   0.000148  -0.456819
    19  C    0.000922  -0.005106   0.014106   0.038433  -0.000086  -0.179016
    20  H   -0.000916   0.000071  -0.027920   0.000928  -0.000035  -0.157107
    21  H    0.000025  -0.000878   0.000625  -0.027252   0.000007   0.046422
    22  H   -0.002373  -0.017333   0.000416   0.000535  -0.031040  -0.008177
    23  H    0.000072  -0.000018   0.001553  -0.000396   0.000003   0.014475
    24  H   -0.000008   0.000016  -0.000192   0.002312  -0.000000  -0.018555
    25  H    0.210414   0.000250   0.063218   0.000052   0.000127  -0.328909
    26  H    0.000066   0.114717  -0.000030  -0.005018   0.000319   0.053884
    27  H    0.018303  -0.000550   0.000148   0.000011   0.272693  -0.043105
               7          8          9         10         11         12
     1  O    0.123442  -0.060903   0.025088  -0.069856   0.053291   0.569571
     2  O   -0.593419  -0.026278   0.083821   0.014675   0.059498  -0.005002
     3  O   -0.328840  -0.353369  -0.701012   0.818899  -0.020717   0.113918
     4  O    0.229436  -0.693606  -0.344145  -0.033775   0.859702  -0.040857
     5  O   -0.005015   0.012119  -0.004184   0.023224  -0.002196   0.032302
     6  C   -0.853258   3.676067 -10.705910   0.688052   2.582525   2.099680
     7  C   25.750231 -14.869337   4.912642   1.747975  -1.178626  -2.616533
     8  C  -14.869337  41.607020 -17.072692   1.212375  -0.564302   0.662112
     9  C    4.912642 -17.072692  38.318795  -0.077557   2.014005  -5.362519
    10  C    1.747975   1.212375  -0.077557  15.919212   2.505983  -6.879110
    11  C   -1.178626  -0.564302   2.014005   2.505983  17.056388  -2.231022
    12  C   -2.616533   0.662112  -5.362519  -6.879110  -2.231022  29.446087
    13  C    4.788557  -5.624775   0.156599  -1.457772  -7.017768   1.209092
    14  C   -1.216764   1.125599  -1.120511  -1.580294  -2.198483  -1.600704
    15  C   -2.898680   2.258276  -4.994879  -2.613039  -1.543173   0.466341
    16  C   -0.467012  -4.657711   2.214451  -1.719635  -2.218051  -0.906907
    17  C   -6.179884  -0.680491   0.687570  -1.993781  -0.804475  -8.192589
    18  C   -0.389497  -3.751848   2.669444  -0.343104   0.078120   0.472977
    19  C   -0.600164   3.315368  -4.496251   0.354771  -0.892759  -0.399908
    20  H    0.040730   0.063705   0.250138  -0.111841   0.001723  -0.048617
    21  H   -0.130756   0.242064   0.006869  -0.001896  -0.035196   0.012019
    22  H   -0.064708   0.003134   0.006224  -0.016548   0.059604  -0.182561
    23  H   -0.019845   0.010187  -0.041306   0.042642  -0.019395   0.009823
    24  H    0.019002  -0.049668  -0.001172  -0.017312   0.036767  -0.003840
    25  H   -0.027145   0.035575   0.037452   0.086120  -0.005581   0.010895
    26  H    0.314960  -0.014029  -0.038233   0.002827  -0.067312   0.029957
    27  H   -0.009261  -0.001538  -0.007722  -0.015912  -0.011677  -0.235541
              13         14         15         16         17         18
     1  O   -0.009264  -1.007464   0.006461   0.001408  -0.125124   0.003391
     2  O   -0.061970   0.060954   0.002144   0.026821   0.480712   0.000908
     3  O   -0.042148  -0.016254   0.264127  -0.025296   0.020586   0.047723
     4  O    0.151839   0.010529  -0.013966   0.243622   0.031874  -0.004548
     5  O    0.035185   0.620107   0.001560   0.000030  -0.652717   0.000148
     6  C   -2.640438  -7.754744  -0.363069  -2.688538  -3.239665  -0.456819
     7  C    4.788557  -1.216764  -2.898680  -0.467012  -6.179884  -0.389497
     8  C   -5.624775   1.125599   2.258276  -4.657711  -0.680491  -3.751848
     9  C    0.156599  -1.120511  -4.994879   2.214451   0.687570   2.669444
    10  C   -1.457772  -1.580294  -2.613039  -1.719635  -1.993781  -0.343104
    11  C   -7.017768  -2.198483  -1.543173  -2.218051  -0.804475   0.078120
    12  C    1.209092  -1.600704   0.466341  -0.906907  -8.192589   0.472977
    13  C   20.952466  -1.668999  -0.855707   0.304620  -2.454050  -0.385143
    14  C   -1.668999  22.080354  -0.076599  -0.323463   1.217502   0.131582
    15  C   -0.855707  -0.076599  14.178602   3.348379  -0.482042  -0.591585
    16  C    0.304620  -0.323463   3.348379  14.258788   0.020263  -0.846985
    17  C   -2.454050   1.217502  -0.482042   0.020263  27.730395  -0.037498
    18  C   -0.385143   0.131582  -0.591585  -0.846985  -0.037498  11.581935
    19  C    0.535478  -0.080816  -0.718096  -1.101129   0.169448  -1.719133
    20  H    0.002052  -0.002082   0.428434   0.101565  -0.004578  -0.231152
    21  H   -0.048266   0.000520   0.069601   0.348116  -0.004433   0.015475
    22  H   -0.256998  -0.101808  -0.003514  -0.000297   0.868388   0.000364
    23  H   -0.003350   0.000990  -0.069919  -0.001839   0.000368   0.478496
    24  H    0.009399  -0.000164  -0.001700  -0.065895   0.000699  -0.081242
    25  H    0.012612   0.194295  -0.022053  -0.001358   0.047355  -0.002773
    26  H    0.472510  -0.044280  -0.000672  -0.004252  -0.643963  -0.000541
    27  H    0.013399   0.124242   0.001343  -0.000225   0.196755  -0.000109
              19         20         21         22         23         24
     1  O    0.000922  -0.000916   0.000025  -0.002373   0.000072  -0.000008
     2  O   -0.005106   0.000071  -0.000878  -0.017333  -0.000018   0.000016
     3  O    0.014106  -0.027920   0.000625   0.000416   0.001553  -0.000192
     4  O    0.038433   0.000928  -0.027252   0.000535  -0.000396   0.002312
     5  O   -0.000086  -0.000035   0.000007  -0.031040   0.000003  -0.000000
     6  C   -0.179016  -0.157107   0.046422  -0.008177   0.014475  -0.018555
     7  C   -0.600164   0.040730  -0.130756  -0.064708  -0.019845   0.019002
     8  C    3.315368   0.063705   0.242064   0.003134   0.010187  -0.049668
     9  C   -4.496251   0.250138   0.006869   0.006224  -0.041306  -0.001172
    10  C    0.354771  -0.111841  -0.001896  -0.016548   0.042642  -0.017312
    11  C   -0.892759   0.001723  -0.035196   0.059604  -0.019395   0.036767
    12  C   -0.399908  -0.048617   0.012019  -0.182561   0.009823  -0.003840
    13  C    0.535478   0.002052  -0.048266  -0.256998  -0.003350   0.009399
    14  C   -0.080816  -0.002082   0.000520  -0.101808   0.000990  -0.000164
    15  C   -0.718096   0.428434   0.069601  -0.003514  -0.069919  -0.001700
    16  C   -1.101129   0.101565   0.348116  -0.000297  -0.001839  -0.065895
    17  C    0.169448  -0.004578  -0.004433   0.868388   0.000368   0.000699
    18  C   -1.719133  -0.231152   0.015475   0.000364   0.478496  -0.081242
    19  C   12.136115   0.004662  -0.172528   0.000181  -0.086802   0.484099
    20  H    0.004662   0.411491   0.001527  -0.000053  -0.012275   0.002623
    21  H   -0.172528   0.001527   0.395910   0.000048   0.002553  -0.011025
    22  H    0.000181  -0.000053   0.000048   0.463189   0.000004  -0.000022
    23  H   -0.086802  -0.012275   0.002553   0.000004   0.410159  -0.008741
    24  H    0.484099   0.002623  -0.011025  -0.000022  -0.008741   0.409119
    25  H    0.001683   0.000177  -0.000122   0.000441  -0.000141   0.000012
    26  H    0.000834  -0.000021  -0.000270  -0.007134  -0.000002   0.000022
    27  H   -0.000198  -0.000058  -0.000001   0.005206   0.000001  -0.000000
              25         26         27
     1  O    0.210414   0.000066   0.018303
     2  O    0.000250   0.114717  -0.000550
     3  O    0.063218  -0.000030   0.000148
     4  O    0.000052  -0.005018   0.000011
     5  O    0.000127   0.000319   0.272693
     6  C   -0.328909   0.053884  -0.043105
     7  C   -0.027145   0.314960  -0.009261
     8  C    0.035575  -0.014029  -0.001538
     9  C    0.037452  -0.038233  -0.007722
    10  C    0.086120   0.002827  -0.015912
    11  C   -0.005581  -0.067312  -0.011677
    12  C    0.010895   0.029957  -0.235541
    13  C    0.012612   0.472510   0.013399
    14  C    0.194295  -0.044280   0.124242
    15  C   -0.022053  -0.000672   0.001343
    16  C   -0.001358  -0.004252  -0.000225
    17  C    0.047355  -0.643963   0.196755
    18  C   -0.002773  -0.000541  -0.000109
    19  C    0.001683   0.000834  -0.000198
    20  H    0.000177  -0.000021  -0.000058
    21  H   -0.000122  -0.000270  -0.000001
    22  H    0.000441  -0.007134   0.005206
    23  H   -0.000141  -0.000002   0.000001
    24  H    0.000012   0.000022  -0.000000
    25  H    0.330788   0.000109   0.000329
    26  H    0.000109   0.541079  -0.000051
    27  H    0.000329  -0.000051   0.373994
 Mulliken charges:
               1
     1  O   -0.291203
     2  O   -0.115224
     3  O   -0.150002
     4  O   -0.109867
     5  O   -0.208628
     6  C    1.287344
     7  C    0.521767
     8  C    0.196946
     9  C   -0.415003
    10  C   -0.485322
    11  C   -0.496872
    12  C   -0.429064
    13  C   -0.117160
    14  C   -0.773245
    15  C    0.223426
    16  C    0.160531
    17  C    0.023376
    18  C   -0.638587
    19  C   -0.604108
    20  H    0.286826
    21  H    0.290843
    22  H    0.284832
    23  H    0.292702
    24  H    0.295466
    25  H    0.356179
    26  H    0.294524
    27  H    0.319524
 Sum of Mulliken charges =  -0.00000
 Mulliken charges with hydrogens summed into heavy atoms:
               1
     1  O    0.064976
     2  O    0.179300
     3  O   -0.150002
     4  O   -0.109867
     5  O    0.110896
     6  C    1.287344
     7  C    0.521767
     8  C    0.196946
     9  C   -0.415003
    10  C   -0.485322
    11  C   -0.496872
    12  C   -0.429064
    13  C   -0.117160
    14  C   -0.773245
    15  C    0.510252
    16  C    0.451373
    17  C    0.308207
    18  C   -0.345884
    19  C   -0.308642
 Electronic spatial extent (au):  <R**2>=           4737.9939
 Charge=             -0.0000 electrons
 Dipole moment (field-independent basis, Debye):
    X=              0.3640    Y=             -0.8948    Z=              0.0016  Tot=              0.9660
 Quadrupole moment (field-independent basis, Debye-Ang):
   XX=            -87.1430   YY=           -112.4200   ZZ=           -111.4405
   XY=             -8.5725   XZ=              0.0043   YZ=              0.0089
 Traceless Quadrupole moment (field-independent basis, Debye-Ang):
   XX=             16.5249   YY=             -8.7522   ZZ=             -7.7727
   XY=             -8.5725   XZ=              0.0043   YZ=              0.0089
 Octapole moment (field-independent basis, Debye-Ang**2):
  XXX=             50.0711  YYY=            -13.8534  ZZZ=             -0.0086  XYY=            -45.2095
  XXY=             20.6123  XXZ=              0.0346  XZZ=            -14.7609  YZZ=             -0.6482
  YYZ=              0.0087  XYZ=             -0.0110
 Hexadecapole moment (field-independent basis, Debye-Ang**3):
 XXXX=          -3939.8623 YYYY=          -1827.3673 ZZZZ=           -118.3480 XXXY=            -52.4786
 XXXZ=              0.1049 YYYX=            -84.8808 YYYZ=              0.0709 ZZZX=             -0.0182
 ZZZY=             -0.0111 XXYY=           -792.7162 XXZZ=           -803.2909 YYZZ=           -328.1183
 XXYZ=              0.0581 YYXZ=              0.0286 ZZXY=             10.9842
 N-N= 1.368948386503D+03 E-N=-4.874321527105D+03  KE= 9.107219912572D+02
 R6APFD:  NTU= -4 IXU= 1 FactS= 1.050
 Calling FoFJK, ICntrl=      2127 FMM=F ISym2X=0 I1Cent= 0 IOpClX= 0 NMat=1 NMatS=1 NMatT=0.
 ***** Axes restored to original set *****
 -------------------------------------------------------------------
 Center     Atomic                   Forces (Hartrees/Bohr)
 Number     Number              X              Y              Z
 -------------------------------------------------------------------
      1        8           0.020618300   -0.014674341    0.000003167
      2        8           0.003722601    0.005309765   -0.000038549
      3        8           0.003029829    0.000356169   -0.000026441
      4        8          -0.000141420    0.019432737    0.000059944
      5        8          -0.014925511    0.004939220    0.000078639
      6        6           0.008520814    0.007260615    0.000015676
      7        6          -0.008116202   -0.019955401    0.000031090
      8        6          -0.007197881    0.000049033    0.000003471
      9        6          -0.009732577    0.003876938    0.000052578
     10        6          -0.001404425    0.006541428    0.000049674
     11        6           0.002285433   -0.033398065   -0.000164660
     12        6          -0.023116989    0.025339665   -0.000007817
     13        6           0.011835072   -0.014942001    0.000111510
     14        6           0.020913794   -0.006592524   -0.000149608
     15        6          -0.007612004   -0.001917674    0.000001990
     16        6          -0.005881778    0.004274209   -0.000002448
     17        6          -0.001438710    0.018609779   -0.000007995
     18        6           0.006914561    0.001519435   -0.000007760
     19        6           0.007218398   -0.001578480   -0.000006607
     20        1           0.005750559    0.000425485   -0.000004479
     21        1           0.006449275   -0.001310231    0.000003600
     22        1           0.001666812    0.001049908   -0.000002796
     23        1          -0.000798876    0.001452267    0.000001744
     24        1          -0.001246316   -0.001218808   -0.000001898
     25        1          -0.006000122   -0.003288317    0.000004636
     26        1          -0.012056986    0.006751758   -0.000001142
     27        1           0.000744348   -0.008312570    0.000004480
 -------------------------------------------------------------------
 Cartesian Forces:  Max     0.033398065 RMS     0.008759490

 GradGradGradGradGradGradGradGradGradGradGradGradGradGradGradGradGradGrad
 Berny optimization.
 FormGI is forming the generalized inverse of G from B-inverse, IUseBI=4.
 Internal  Forces:  Max     0.019311296 RMS     0.004869570
 Search for a local minimum.
 Step number   1 out of a maximum of  154
 All quantities printed in internal units (Hartrees-Bohrs-Radians)
 Mixed Optimization -- RFO/linear search
 Second derivative matrix not updated -- first step.
 ITU=  0
     Eigenvalues ---    0.01067   0.01068   0.01069   0.01553   0.01638
     Eigenvalues ---    0.01767   0.01806   0.01882   0.01919   0.02115
     Eigenvalues ---    0.02116   0.02118   0.02120   0.02123   0.02129
     Eigenvalues ---    0.02156   0.02157   0.02158   0.02160   0.02162
     Eigenvalues ---    0.02166   0.02167   0.02176   0.02184   0.16000
     Eigenvalues ---    0.16000   0.16000   0.16000   0.16000   0.16000
     Eigenvalues ---    0.16000   0.16000   0.22000   0.22589   0.23494
     Eigenvalues ---    0.24504   0.25000   0.25000   0.25000   0.25000
     Eigenvalues ---    0.25000   0.25000   0.25000   0.25000   0.25000
     Eigenvalues ---    0.25000   0.33199   0.33906   0.34887   0.34905
     Eigenvalues ---    0.35108   0.35204   0.35206   0.35250   0.35262
     Eigenvalues ---    0.40045   0.41813   0.42010   0.42214   0.45129
     Eigenvalues ---    0.45757   0.46015   0.46055   0.46056   0.46350
     Eigenvalues ---    0.46548   0.46577   0.51974   0.52266   0.52388
     Eigenvalues ---    0.52772   0.52872   0.53698   0.93366   0.93394
 RFO step:  Lambda=-9.66681911D-03 EMin= 1.06745337D-02
 Linear search not attempted -- first point.
 Iteration  1 RMS(Cart)=  0.02660481 RMS(Int)=  0.00038542
 Iteration  2 RMS(Cart)=  0.00058277 RMS(Int)=  0.00002722
 Iteration  3 RMS(Cart)=  0.00000020 RMS(Int)=  0.00002722
 Variable       Old X    -DE/DX   Delta X   Delta X   Delta X     New X
                                 (Linear)    (Quad)   (Total)
    R1        2.57925  -0.01602   0.00000  -0.03025  -0.03025   2.54899
    R2        1.83008   0.00374   0.00000   0.00685   0.00685   1.83693
    R3        2.57645  -0.01179   0.00000  -0.02215  -0.02215   2.55431
    R4        1.83773  -0.01369   0.00000  -0.02543  -0.02543   1.81230
    R5        2.31407   0.00054   0.00000   0.00057   0.00057   2.31464
    R6        2.31419  -0.01931   0.00000  -0.02047  -0.02047   2.29372
    R7        2.57529  -0.01431   0.00000  -0.02681  -0.02681   2.54848
    R8        1.83867  -0.00834   0.00000  -0.01553  -0.01553   1.82315
    R9        2.63885   0.01801   0.00000   0.04130   0.04134   2.68019
   R10        2.79142   0.00029   0.00000   0.00113   0.00110   2.79252
   R11        2.64575  -0.00084   0.00000  -0.00110  -0.00114   2.64461
   R12        2.79154   0.00447   0.00000   0.01367   0.01372   2.80526
   R13        2.64581   0.00247   0.00000   0.00663   0.00669   2.65251
   R14        2.63883   0.00283   0.00000   0.00462   0.00461   2.64344
   R15        2.79162   0.00277   0.00000   0.00652   0.00648   2.79810
   R16        2.64566  -0.00505   0.00000  -0.01091  -0.01091   2.63475
   R17        2.79115   0.01059   0.00000   0.02919   0.02922   2.82037
   R18        2.64575  -0.00710   0.00000  -0.01540  -0.01540   2.63035
   R19        2.63665   0.00224   0.00000   0.00343   0.00337   2.64002
   R20        2.63634   0.00672   0.00000   0.01349   0.01353   2.64987
   R21        2.63336  -0.01084   0.00000  -0.02471  -0.02474   2.60862
   R22        2.63642  -0.00568   0.00000  -0.01182  -0.01182   2.62460
   R23        2.05344   0.00075   0.00000   0.00207   0.00207   2.05552
   R24        2.63654  -0.00410   0.00000  -0.00858  -0.00858   2.62796
   R25        2.05342   0.00060   0.00000   0.00165   0.00165   2.05507
   R26        2.05500   0.00079   0.00000   0.00219   0.00219   2.05720
   R27        2.63336   0.00351   0.00000   0.00758   0.00758   2.64094
   R28        2.05271   0.00148   0.00000   0.00410   0.00410   2.05681
   R29        2.05252   0.00165   0.00000   0.00455   0.00455   2.05706
    A1        1.93742  -0.01048   0.00000  -0.06178  -0.06178   1.87565
    A2        1.91319  -0.00345   0.00000  -0.02031  -0.02031   1.89289
    A3        1.89029  -0.00028   0.00000  -0.00162  -0.00162   1.88867
    A4        2.10282   0.00183   0.00000   0.00792   0.00792   2.11074
    A5        2.09291   0.00281   0.00000   0.01441   0.01441   2.10731
    A6        2.08746  -0.00464   0.00000  -0.02233  -0.02232   2.06513
    A7        2.10273  -0.00006   0.00000   0.00130   0.00132   2.10406
    A8        2.09294  -0.00716   0.00000  -0.02349  -0.02343   2.06951
    A9        2.08751   0.00722   0.00000   0.02219   0.02210   2.10962
   A10        2.10272   0.00170   0.00000   0.00387   0.00381   2.10653
   A11        2.09305   0.00212   0.00000   0.00891   0.00893   2.10198
   A12        2.08741  -0.00383   0.00000  -0.01278  -0.01274   2.07467
   A13        2.10288   0.00456   0.00000   0.01619   0.01621   2.11909
   A14        2.09284  -0.00052   0.00000  -0.00207  -0.00208   2.09075
   A15        2.08747  -0.00404   0.00000  -0.01412  -0.01413   2.07334
   A16        2.12659  -0.00253   0.00000  -0.00952  -0.00948   2.11711
   A17        2.07902   0.00442   0.00000   0.01724   0.01728   2.09630
   A18        2.07757  -0.00189   0.00000  -0.00772  -0.00780   2.06977
   A19        2.12443   0.00559   0.00000   0.02046   0.02042   2.14485
   A20        2.08110   0.00056   0.00000   0.00110   0.00105   2.08215
   A21        2.07765  -0.00614   0.00000  -0.02156  -0.02147   2.05618
   A22        2.13381   0.01709   0.00000   0.06618   0.06623   2.20003
   A23        2.05532  -0.01557   0.00000  -0.05959  -0.05954   1.99578
   A24        2.09406  -0.00151   0.00000  -0.00659  -0.00668   2.08737
   A25        2.14398  -0.00910   0.00000  -0.03579  -0.03584   2.10814
   A26        2.04505   0.00991   0.00000   0.03742   0.03737   2.08242
   A27        2.09415  -0.00081   0.00000  -0.00164  -0.00153   2.09263
   A28        2.10639  -0.00455   0.00000  -0.01465  -0.01461   2.09178
   A29        2.08061   0.00294   0.00000   0.01418   0.01422   2.09483
   A30        2.09619   0.00161   0.00000   0.00047   0.00039   2.09658
   A31        2.09405  -0.00165   0.00000  -0.00728  -0.00729   2.08676
   A32        2.11954  -0.00505   0.00000  -0.03096  -0.03095   2.08859
   A33        2.06960   0.00669   0.00000   0.03823   0.03824   2.10783
   A34        2.09412  -0.00076   0.00000  -0.00386  -0.00386   2.09026
   A35        2.11945  -0.00635   0.00000  -0.03773  -0.03773   2.08172
   A36        2.06961   0.00711   0.00000   0.04159   0.04159   2.11121
   A37        2.09612   0.00506   0.00000   0.01683   0.01685   2.11297
   A38        2.10443  -0.00068   0.00000   0.00251   0.00250   2.10693
   A39        2.08264  -0.00438   0.00000  -0.01934  -0.01935   2.06328
   A40        2.09618  -0.00019   0.00000  -0.00034  -0.00035   2.09584
   A41        2.09345  -0.00066   0.00000  -0.00429  -0.00429   2.08916
   A42        2.09355   0.00085   0.00000   0.00463   0.00464   2.09819
   A43        2.09613   0.00100   0.00000   0.00464   0.00464   2.10077
   A44        2.09337  -0.00109   0.00000  -0.00579  -0.00579   2.08758
   A45        2.09368   0.00009   0.00000   0.00115   0.00115   2.09483
    D1       -0.00019   0.00001   0.00000   0.00015   0.00015  -0.00005
    D2        3.14113   0.00001   0.00000   0.00032   0.00032   3.14145
    D3       -3.14144  -0.00001   0.00000  -0.00038  -0.00038   3.14137
    D4       -0.00066   0.00002   0.00000   0.00050   0.00050  -0.00016
    D5        0.00097  -0.00002   0.00000  -0.00058  -0.00058   0.00039
    D6        3.14105   0.00003   0.00000   0.00078   0.00078  -3.14135
    D7       -0.00072   0.00001   0.00000   0.00053   0.00054  -0.00018
    D8        3.14144   0.00000   0.00000   0.00022   0.00023  -3.14151
    D9        3.14086   0.00002   0.00000   0.00061   0.00061   3.14147
   D10       -0.00016   0.00001   0.00000   0.00030   0.00030   0.00014
   D11       -3.14153   0.00002   0.00000   0.00067   0.00067  -3.14086
   D12        0.00063  -0.00000   0.00000  -0.00008  -0.00008   0.00055
   D13        0.00007   0.00001   0.00000   0.00060   0.00060   0.00067
   D14       -3.14095  -0.00001   0.00000  -0.00016  -0.00015  -3.14109
   D15        3.14132   0.00001   0.00000   0.00022   0.00022   3.14154
   D16       -0.00000   0.00000   0.00000   0.00005   0.00005   0.00005
   D17       -0.00029   0.00001   0.00000   0.00029   0.00029   0.00000
   D18        3.14158   0.00001   0.00000   0.00013   0.00012  -3.14149
   D19        3.14108   0.00002   0.00000   0.00098   0.00099  -3.14111
   D20        0.00048  -0.00002   0.00000  -0.00092  -0.00091  -0.00043
   D21       -0.00108   0.00002   0.00000   0.00127   0.00129   0.00021
   D22        3.14150  -0.00002   0.00000  -0.00062  -0.00061   3.14090
   D23        3.14100   0.00002   0.00000   0.00045   0.00044   3.14144
   D24        0.00025  -0.00001   0.00000  -0.00047  -0.00047  -0.00022
   D25       -0.00003   0.00001   0.00000   0.00015   0.00013   0.00011
   D26       -3.14078  -0.00002   0.00000  -0.00077  -0.00077  -3.14155
   D27        0.00007  -0.00001   0.00000  -0.00039  -0.00040  -0.00033
   D28        3.14134  -0.00000   0.00000  -0.00003  -0.00003   3.14131
   D29       -3.14127  -0.00001   0.00000  -0.00050  -0.00051   3.14141
   D30        0.00000  -0.00000   0.00000  -0.00014  -0.00014  -0.00014
   D31       -3.14134  -0.00002   0.00000  -0.00072  -0.00072   3.14113
   D32       -0.00030   0.00000   0.00000   0.00001   0.00000  -0.00029
   D33       -0.00000  -0.00001   0.00000  -0.00060  -0.00061  -0.00061
   D34        3.14104   0.00001   0.00000   0.00012   0.00012   3.14116
   D35        0.00008   0.00000   0.00000   0.00006   0.00006   0.00015
   D36        3.14154   0.00000   0.00000   0.00010   0.00010  -3.14154
   D37       -3.14125  -0.00000   0.00000  -0.00005  -0.00005  -3.14131
   D38        0.00020  -0.00000   0.00000  -0.00001  -0.00001   0.00019
   D39       -3.14077  -0.00002   0.00000  -0.00102  -0.00100   3.14141
   D40       -0.00014   0.00002   0.00000   0.00084   0.00084   0.00069
   D41        0.00114  -0.00003   0.00000  -0.00138  -0.00137  -0.00023
   D42       -3.14141   0.00001   0.00000   0.00047   0.00047  -3.14095
   D43       -0.00008   0.00000   0.00000   0.00013   0.00013   0.00004
   D44        3.14152   0.00000   0.00000   0.00002   0.00003   3.14155
   D45        3.14119   0.00001   0.00000   0.00050   0.00049  -3.14150
   D46       -0.00039   0.00001   0.00000   0.00039   0.00039   0.00000
   D47       -0.00118   0.00003   0.00000   0.00097   0.00097  -0.00021
   D48       -3.14125  -0.00001   0.00000  -0.00041  -0.00041   3.14153
   D49        3.14015   0.00004   0.00000   0.00115   0.00114   3.14129
   D50        0.00009  -0.00001   0.00000  -0.00023  -0.00024  -0.00015
   D51       -3.14096  -0.00001   0.00000  -0.00055  -0.00057  -3.14153
   D52        0.00086  -0.00002   0.00000  -0.00074  -0.00075   0.00011
   D53       -0.00017   0.00001   0.00000   0.00028   0.00029   0.00012
   D54       -3.14153   0.00000   0.00000   0.00010   0.00010  -3.14143
   D55       -3.14009  -0.00004   0.00000  -0.00127  -0.00128  -3.14138
   D56        0.00127  -0.00003   0.00000  -0.00109  -0.00110   0.00017
   D57       -0.00000   0.00000   0.00000   0.00007   0.00007   0.00007
   D58        3.14136   0.00001   0.00000   0.00025   0.00025  -3.14157
   D59       -0.00008   0.00000   0.00000   0.00003   0.00003  -0.00006
   D60        3.14152  -0.00000   0.00000  -0.00001  -0.00001   3.14151
   D61       -3.14155   0.00000   0.00000  -0.00000  -0.00000  -3.14155
   D62        0.00006  -0.00000   0.00000  -0.00004  -0.00004   0.00002
   D63        0.00009  -0.00000   0.00000  -0.00004  -0.00004   0.00005
   D64       -3.14147  -0.00000   0.00000  -0.00009  -0.00009  -3.14157
   D65       -3.14152   0.00000   0.00000   0.00006   0.00006  -3.14146
   D66        0.00011   0.00000   0.00000   0.00001   0.00001   0.00012
   D67       -0.00000  -0.00000   0.00000  -0.00004  -0.00004  -0.00004
   D68        3.14156   0.00000   0.00000   0.00001   0.00002   3.14157
   D69        3.14158   0.00000   0.00000  -0.00000  -0.00000   3.14158
   D70       -0.00005   0.00000   0.00000   0.00005   0.00005   0.00000
         Item               Value     Threshold  Converged?
 Maximum Force            0.019311     0.000450     NO 
 RMS     Force            0.004870     0.000300     NO 
 Maximum Displacement     0.114280     0.001800     NO 
 RMS     Displacement     0.026523     0.001200     NO 
 Predicted change in Energy=-4.994140D-03
 GradGradGradGradGradGradGradGradGradGradGradGradGradGradGradGradGradGrad

                          Input orientation:                          
 ---------------------------------------------------------------------
 Center     Atomic      Atomic             Coordinates (Angstroms)
 Number     Number       Type             X           Y           Z
 ---------------------------------------------------------------------
      1          8           0        2.282452    2.489631    0.000172
      2          8           0        1.787714   -2.986970    0.000109
      3          8           0       -0.317849    2.629979   -0.001250
      4          8           0       -0.811693   -2.717738   -0.000231
      5          8           0        4.415047    0.958901    0.000265
      6          6           0        0.790007    0.547341   -0.000270
      7          6           0        0.673414   -0.866155   -0.000390
      8          6           0       -1.744317    0.765169   -0.000320
      9          6           0       -1.864694   -0.628490   -0.000129
     10          6           0       -0.410761    1.408654   -0.000589
     11          6           0       -0.662660   -1.513137   -0.000610
     12          6           0        2.047574    1.161369    0.000087
     13          6           0        1.846730   -1.636577    0.000023
     14          6           0        3.200595    0.372538    0.000270
     15          6           0       -2.881209    1.572267   -0.000087
     16          6           0       -3.127691   -1.213540    0.000466
     17          6           0        3.098230   -1.004082    0.000278
     18          6           0       -4.139285    0.983860    0.000514
     19          6           0       -4.261501   -0.408309    0.000814
     20          1           0       -2.773095    2.654613   -0.000286
     21          1           0       -3.211485   -2.297806    0.000568
     22          1           0        4.016669   -1.588521    0.000443
     23          1           0       -5.028304    1.611790    0.000771
     24          1           0       -5.247998   -0.868488    0.001304
     25          1           0        1.420182    2.938396   -0.000102
     26          1           0        2.683304   -3.329980    0.000203
     27          1           0        4.288126    1.915285    0.000477
 ---------------------------------------------------------------------
                    Distance matrix (angstroms):
                    1          2          3          4          5
     1  O    0.000000
     2  O    5.498901   0.000000
     3  O    2.604086   5.998625   0.000000
     4  O    6.057262   2.613313   5.370470   0.000000
     5  O    2.625089   4.740546   5.019244   6.390343   0.000000
     6  C    2.449465   3.672434   2.358968   3.636782   3.648327
     7  C    3.721599   2.395729   3.633945   2.373584   4.163009
     8  C    4.380483   5.153036   2.347834   3.605610   6.162409
     9  C    5.188593   4.347702   3.606986   2.339608   6.477265
    10  C    2.902052   4.914753   1.224854   4.145824   4.846720
    11  C    4.969490   2.859461   4.157439   1.213785   5.647484
    12  C    1.348869   4.156469   2.784249   4.819012   2.376115
    13  C    4.149150   1.351681   4.784235   2.869865   3.651405
    14  C    2.307610   3.644520   4.180369   5.064411   1.348598
    15  C    5.244516   6.525756   2.773007   4.763092   7.321992
    16  C    6.556151   5.225539   4.761077   2.761604   7.849356
    17  C    3.587691   2.376824   4.987584   4.268971   2.363749
    18  C    6.595912   7.134200   4.160899   4.977419   8.554368
    19  C    7.156911   6.575902   4.978311   4.151462   8.783606
    20  H    5.058238   7.254546   2.455369   5.719200   7.385447
    21  H    7.287172   5.046477   5.714559   2.436256   8.292775
    22  H    4.431571   2.631330   6.048453   4.958650   2.578384
    23  H    7.363271   8.222329   4.819242   6.043560   9.465894
    24  H    8.245279   7.347735   6.045299   4.806301   9.834317
    25  H    0.972060   5.936753   1.765184   6.080552   3.589933
    26  H    5.833399   0.959029   6.672932   3.548217   4.625304
    27  H    2.086289   5.503105   4.661094   6.890069   0.964769
                    6          7          8          9         10
     6  C    0.000000
     7  C    1.418296   0.000000
     8  C    2.543668   2.916614   0.000000
     9  C    2.903450   2.549211   1.398849   0.000000
    10  C    1.477736   2.519958   1.480690   2.502774   0.000000
    11  C    2.521073   1.484480   2.522034   1.492476   2.932629
    12  C    1.399466   2.449320   3.812533   4.302260   2.470741
    13  C    2.426141   1.403646   4.320186   3.845895   3.790739
    14  C    2.416917   2.814428   4.960474   5.163256   3.757050
    15  C    3.811602   4.310598   1.394250   2.424178   2.475861
    16  C    4.295237   3.816946   2.414336   1.391921   3.775925
    17  C    2.781152   2.428735   5.155629   4.977116   4.258440
    18  C    4.948583   5.156029   2.404933   2.788089   3.752645
    19  C    5.141109   4.956108   2.777277   2.406899   4.257881
    20  H    4.139601   4.926889   2.151368   3.406459   2.670775
    21  H    4.909867   4.140298   3.396233   2.144868   4.645632
    22  H    3.869528   3.420404   6.223247   5.959202   5.346512
    23  H    5.914880   6.216897   3.391363   3.876504   4.622009
    24  H    6.201780   5.921413   3.865827   3.391805   5.346423
    25  H    2.472704   3.877147   3.838875   4.849030   2.385888
    26  H    4.314880   3.179637   6.031092   5.289833   5.659318
    27  H    3.756076   4.560981   6.141101   6.657927   4.726120
                   11         12         13         14         15
    11  C    0.000000
    12  C    3.807669   0.000000
    13  C    2.512425   2.805145   0.000000
    14  C    4.298896   1.397036   2.422704   0.000000
    15  C    3.800221   4.945882   5.714027   6.199007   0.000000
    16  C    2.483171   5.694169   4.992377   6.524021   2.796690
    17  C    3.795185   2.406877   1.402249   1.380421   6.510858
    18  C    4.280411   6.189405   6.534453   7.365294   1.388876
    19  C    3.764612   6.501409   6.230500   7.502839   2.414102
    20  H    4.671624   5.046645   6.305323   6.394750   1.087732
    21  H    2.666873   6.294727   5.101251   6.945898   3.884140
    22  H    4.679936   3.382192   2.170471   2.124083   7.587576
    23  H    5.368800   7.090200   7.603814   8.321690   2.147459
    24  H    4.630432   7.572693   7.136184   8.539254   3.399849
    25  H    4.914710   1.884528   4.594815   3.123059   4.513122
    26  H    3.807413   4.536118   1.888774   3.738480   7.415918
    27  H    6.021989   2.363993   4.310005   1.887536   7.177536
                   16         17         18         19         20
    16  C    0.000000
    17  C    6.229443   0.000000
    18  C    2.419068   7.505567   0.000000
    19  C    1.390655   7.383805   1.397524   0.000000
    20  H    3.884372   6.917984   2.158215   3.405414   0.000000
    21  H    1.087498   6.440980   3.410300   2.161650   4.971784
    22  H    7.154194   1.088622   8.552002   8.361877   8.006565
    23  H    3.405117   8.537174   1.088416   2.160737   2.484643
    24  H    2.148200   8.347329   2.158805   1.088550   4.305507
    25  H    6.158061   4.284738   5.893037   6.594084   4.202868
    26  H    6.184414   2.362618   8.071985   7.534353   8.098620
    27  H    8.048844   3.152548   8.478727   8.859752   7.099820
                   21         22         23         24         25
    21  H    0.000000
    22  H    7.262870   0.000000
    23  H    4.311121   9.594453   0.000000
    24  H    2.488038   9.292604   2.489989   0.000000
    25  H    6.990718   5.218689   6.583529   7.678345   0.000000
    26  H    5.984473   2.193295   9.159148   8.304486   6.394374
    27  H    8.601993   3.514305   9.321372   9.934135   3.044973
                   26         27
    26  H    0.000000
    27  H    5.485277   0.000000
 Stoichiometry    C14H8O5
 Framework group  C1[X(C14H8O5)]
 Deg. of freedom    75
 Full point group                 C1      NOp   1
 Largest Abelian subgroup         C1      NOp   1
 Largest concise Abelian subgroup C1      NOp   1
                         Standard orientation:                         
 ---------------------------------------------------------------------
 Center     Atomic      Atomic             Coordinates (Angstroms)
 Number     Number       Type             X           Y           Z
 ---------------------------------------------------------------------
      1          8           0       -2.243198   -2.444441    0.000201
      2          8           0       -1.660944    3.023547    0.000138
      3          8           0        0.354527   -2.626354   -0.001222
      4          8           0        0.933826    2.712781   -0.000202
      5          8           0       -4.351041   -0.879804    0.000293
      6          6           0       -0.719884   -0.526266   -0.000242
      7          6           0       -0.580702    0.885184   -0.000362
      8          6           0        1.810633   -0.784594   -0.000292
      9          6           0        1.953282    0.606962   -0.000100
     10          6           0        0.466957   -1.406671   -0.000561
     11          6           0        0.765548    1.510717   -0.000581
     12          6           0       -1.987109   -1.120105    0.000115
     13          6           0       -1.741547    1.674272    0.000052
     14          6           0       -3.127367   -0.312937    0.000299
     15          6           0        2.934473   -1.609770   -0.000058
     16          6           0        3.225473    1.171740    0.000494
     17          6           0       -3.003002    1.061871    0.000307
     18          6           0        4.201798   -1.041557    0.000543
     19          6           0        4.346261    0.348480    0.000843
     20          1           0        2.809064   -2.690248   -0.000258
     21          1           0        3.326595    2.254526    0.000596
     22          1           0       -3.911977    1.660922    0.000471
     23          1           0        5.080662   -1.683623    0.000800
     24          1           0        5.339991    0.792825    0.001332
     25          1           0       -1.388214   -2.906938   -0.000074
     26          1           0       -2.550934    3.380836    0.000231
     27          1           0       -4.239430   -1.838095    0.000506
 ---------------------------------------------------------------------
 Rotational constants (GHZ):           0.6966993           0.3080865           0.2136213
 Standard basis: 6-311++G(d,p) (5D, 7F)
 There are   493 symmetry adapted cartesian basis functions of A   symmetry.
 There are   474 symmetry adapted basis functions of A   symmetry.
   474 basis functions,   756 primitive gaussians,   493 cartesian basis functions
    66 alpha electrons       66 beta electrons
       nuclear repulsion energy      1369.6580424130 Hartrees.
[...]
 0.,0.00063067,-0.00038408,0.00000001,-0.00023049,0.00008629,-0.0000001
 8,0.00872789,0.02482267,-0.00000230,-0.00483422,0.00270858,0.00000176,
 0.00004933,0.00251707,-0.00000142,0.00183349,0.00070107,0.00000016,-0.
 00016078,-0.00004662,-0.00000008,0.00025341,-0.00000128,0.00000009,-0.
 00003579,0.00007302,0.00000012,-0.06140823,-0.03077694,0.00000240,-0.0
 0138713,0.00020689,-0.00000019,-0.00005774,-0.00018445,-0.00000002,0.0
 0271464,-0.02762092,0.00000180,-0.00486226,-0.00201991,0.00000154,0.06
 041044,-0.00012877,0.00008746,-0.00000006,0.00002242,-0.00002105,-0.00
 000001,-0.00231398,0.00143812,-0.00000033,0.00028011,-0.00048129,0.000
 00008,0.00004830,0.00003703,0.,0.00005428,0.00000822,0.00000025,0.0001
 6148,-0.00000717,-0.00000003,-0.00227735,-0.01453813,0.00000241,0.0034
 0316,0.00028307,-0.00000019,-0.00093028,-0.00254917,0.00000011,-0.0009
 8443,-0.00012375,0.00000029,0.00008302,-0.00010678,0.00000010,-0.00008
 748,0.00005613,0.00000001,-0.00003167,-0.00000976,-0.00000003,-0.02968
 320,-0.33702843,0.00002312,-0.00015930,0.00076299,-0.00000018,0.000020
 03,0.00003493,-0.00000001,0.00192463,-0.00563415,0.00000068,-0.0018918
 0,0.00079907,0.00000080,0.03248320,0.35680995,-0.00000020,-0.00000026,
 0.00006598,0.00000001,0.00000015,-0.00001373,0.00000117,0.00000013,-0.
 00014088,0.00000010,-0.00000002,-0.00043405,-0.00000008,-0.00000005,-0
 .00001037,-0.00000046,0.00000035,0.00021588,0.00000009,-0.00000020,-0.
 00006902,-0.00000074,-0.00000341,0.00344718,0.00000082,0.00000117,0.00
 704809,0.00000018,0.00000034,-0.00389435,0.00000019,0.00000019,0.00079
 323,0.00000009,0.00000036,-0.00006809,-0.00000023,-0.00000006,0.000073
 88,0.00000018,-0.00000005,0.00002707,0.00000074,0.00002422,-0.03967502
 ,-0.00000124,-0.00000044,-0.00137988,0.00000010,0.00000020,-0.00002399
 ,0.00000165,0.00000456,0.00451541,0.00000211,-0.00000044,0.00786305,-0
 .00000407,-0.00002662,0.02697130,-0.00015336,0.00027627,-0.00000005,0.
 00009220,-0.00012026,0.,-0.00101278,-0.00060289,0.00000042,-0.00082648
 ,0.00249703,-0.00000057,0.00028120,0.00020325,0.,-0.00032957,-0.000169
 86,0.00000022,0.00080638,0.00051968,0.00000007,-0.00573692,-0.00152357
 ,0.00000106,0.00427621,-0.02834587,0.00000068,0.00169953,-0.00136609,-
 0.00000040,-0.00074444,-0.00284309,0.00000030,0.00049407,-0.00010242,0
 .00000006,-0.00016741,0.00015393,0.00000006,-0.00040596,0.00004987,-0.
 00000003,-0.00137290,0.00016497,0.00000009,-0.05855002,-0.01961911,0.0
 0000471,-0.00006027,0.00008341,-0.00000004,-0.00389443,0.00284495,0.00
 000112,0.00660411,0.02531747,-0.00000114,0.00008078,-0.00002595,-0.000
 00016,0.05780785,-0.00002903,-0.00003943,0.,0.00000838,0.00003062,-0.0
 0000006,-0.00018111,-0.00025415,0.00000004,0.00315071,0.00062227,-0.00
 000078,-0.00004959,-0.00002417,0.,-0.00006040,0.00003275,0.00000008,-0
 .00029047,-0.00006836,0.00000003,-0.00213175,0.00092243,0.00000022,-0.
 00192553,-0.00989696,0.00000169,0.00040685,-0.00018446,0.00000016,0.00
 078081,-0.00254441,-0.00000004,-0.00001535,0.00004401,-0.00000008,-0.0
 0005912,-0.00010535,0.00000006,0.00005565,0.00000051,0.,0.00042067,0.0
 0077792,-0.00000024,-0.02071935,-0.33882143,0.00001582,-0.00001150,0.0
 0002138,0.00000001,0.00261607,0.00011670,0.00000005,-0.00391008,-0.009
 50330,0.00000106,0.00000215,-0.00009192,0.,0.02188752,0.35886315,0.000
 00002,0.00000007,-0.00002267,0.,-0.00000011,0.00000527,-0.00000002,0.0
 0000004,-0.00039251,-0.00000002,0.00000004,-0.00033406,0.00000005,0.00
 000002,-0.00001322,0.00000001,-0.00000006,0.00001887,-0.00000004,0.000
 00010,0.00023869,0.00000203,0.00000161,0.00710095,-0.00000213,0.000001
 95,0.00393636,-0.00000040,0.00000054,0.00071998,-0.00000052,0.00000021
 ,-0.00407853,0.00000009,-0.00000005,-0.00003806,-0.00000009,0.00000009
 ,0.00005449,-0.00000012,0.00000007,0.00005438,0.00000133,-0.00000054,-
 0.00135470,0.00000763,0.00001585,-0.04032353,-0.00000005,-0.00000004,-
 0.00005300,0.00000022,-0.00000087,0.00781298,-0.00000167,-0.00000051,0
 .00422278,-0.00000002,-0.00000005,-0.00080245,-0.00000562,-0.00001795,
 0.02760944,0.00031695,0.00005620,-0.00000006,0.00234711,0.00076723,-0.
 00000002,0.00004756,-0.00009939,-0.00000011,0.00008302,-0.00057068,0.0
 0000024,-0.00023660,0.00037213,-0.00000009,0.00088299,-0.00111885,-0.0
 0000013,-0.00370528,-0.00388725,-0.00000021,0.00008994,-0.00002671,-0.
 00000004,-0.00036322,-0.00037125,-0.00000002,-0.00044529,0.00022747,0.
 00000017,-0.00001754,0.00189512,-0.00000027,0.00043252,-0.00118563,0.0
 0000021,-0.01630975,0.01846902,-0.00000163,0.00510992,-0.00201223,0.00
 000026,-0.00003335,0.00002287,0.00000003,-0.00007864,0.00015709,0.0000
 0011,-0.25438862,0.12686960,-0.00001009,0.00000013,0.00003427,-0.00000
 001,-0.00002167,-0.00003486,0.,-0.00001455,0.00000656,0.,0.00001785,-0
 .00000692,0.,0.26725953,0.00185352,-0.00116360,-0.00000029,-0.00112668
 ,0.00271641,-0.00000052,0.00016201,-0.00006788,0.00000001,0.00019012,0
 .00023826,-0.00000009,-0.00021233,0.00253199,-0.00000037,-0.00066249,-
 0.00112765,-0.00000052,-0.00266977,-0.00033105,0.00000050,0.00005736,-
 0.00003062,0.00000004,-0.00019701,-0.00015743,-0.00000005,-0.00030440,
 0.00014175,0.00000004,-0.00070684,0.00040089,0.00000023,-0.00259510,-0
 .00463352,0.00000104,-0.01184001,0.00862137,-0.00000100,0.03013871,-0.
 01071139,0.00000125,0.00003615,0.00002464,-0.00000003,0.00000893,0.000
 05532,-0.00000001,0.12515349,-0.13991521,0.00001060,-0.00001280,-0.000
 01421,0.00000004,-0.00002376,0.00002248,-0.00000002,-0.00001482,0.0000
 0267,0.00000001,0.00000013,0.00000137,0.,-0.13703908,0.14427483,-0.000
 00051,0.00000043,-0.00018994,0.00000017,0.00000024,-0.00358911,0.00000
 016,-0.00000009,-0.00015260,0.,0.00000004,-0.00002314,0.00000069,-0.00
 000010,-0.00400967,-0.00000005,-0.00000013,-0.00160341,0.00000003,-0.0
 0000015,0.00485543,-0.00000019,0.00000005,0.00025396,0.00000014,0.0000
 0009,-0.00008399,0.00000030,-0.00000011,-0.00002253,0.00000003,-0.0000
 0019,0.00029850,0.00000138,0.00000052,0.00715059,0.00000016,-0.0000010
 6,0.00205004,-0.00000360,0.00000124,0.00502246,0.00000007,-0.00000003,
 -0.00002106,0.,-0.00000001,-0.00013453,-0.00001016,0.00001009,-0.03070
 939,-0.00000004,-0.00000002,-0.00001065,0.,0.00000002,-0.00001605,0.,0
 .,-0.00000275,0.,0.,0.00000342,0.00001135,-0.00001105,0.02094525,-0.00
 007762,-0.00011159,-0.00000002,-0.00000688,0.00009978,0.,-0.00004062,-
 0.00048310,0.00000025,0.00005720,0.00009720,-0.00000007,-0.00010191,-0
 .00001983,0.,-0.00051314,-0.00033099,-0.00000007,0.00005630,-0.0000916
 0,0.00000009,-0.00390781,-0.00352357,0.00000101,0.00018323,-0.00111394
 ,0.00000012,-0.00018361,0.00175739,-0.00000012,-0.00014635,-0.00001772
 ,-0.00000011,-0.00003532,0.00030103,-0.00000003,-0.00005897,-0.0000755
 3,0.00000003,0.00007041,-0.00005506,0.00000002,-0.01728991,0.01833293,
 0.00000070,0.00152177,-0.00118312,0.00000089,0.00001272,0.00005949,-0.
 00000002,-0.24642102,0.13090070,0.00001199,0.00605266,-0.00408542,0.00
 000022,0.00066431,-0.00031274,-0.00000050,0.00015834,-0.00025540,-0.00
 000005,-0.00000020,0.00000495,0.,0.25934041,0.00001876,0.00001616,0.00
 000003,0.00000624,-0.00002358,0.,0.00017395,-0.00006236,0.00000003,0.0
 0027116,0.00016856,-0.00000005,0.00002827,0.00002317,0.00000001,-0.000
 21529,-0.00018600,-0.00000006,0.00011064,-0.00002138,0.00000013,-0.003
 14938,-0.00020138,0.00000101,-0.00129409,-0.00080751,0.00000009,-0.000
 63971,0.00073705,-0.00000004,-0.00007918,-0.00024251,-0.00000015,0.000
 01767,0.00004407,0.,0.00002329,0.00003579,-0.00000003,-0.00008019,0.00
 000786,-0.00000004,-0.01257522,0.01149664,0.00000067,-0.00149865,-0.00
 572094,0.00000144,-0.00001544,-0.00001632,0.00000002,0.13100857,-0.150
 70939,-0.00000473,0.02697811,-0.01132720,-0.00000147,0.00043018,0.0005
 2738,-0.00000042,0.00121708,-0.00046087,-0.00000018,0.00000301,-0.0000
 0073,0.,-0.14032424,0.15616637,0.00000001,0.00000005,-0.00001033,0.,-0
 .00000003,0.00000056,0.00000020,0.00000018,0.00011175,0.,0.00000004,0.
 00016719,0.00000002,0.,0.00002426,0.00000017,0.00000006,-0.00025228,-0
 .00000003,0.00000007,0.00017076,0.00000181,0.00000039,0.00794547,-0.00
 000011,0.00000013,-0.00097287,0.00000010,-0.00000035,0.00024449,-0.000
 00014,-0.00000009,-0.00130150,0.00000003,-0.00000006,-0.00011952,-0.00
 000001,0.,0.00005811,-0.00000002,0.00000002,0.00000677,0.00000247,-0.0
 0000301,0.00396205,0.00000177,0.00000159,0.00739898,-0.00000001,0.,-0.
 00002660,0.00001199,-0.00000505,-0.03972805,-0.00000337,0.00000273,0.0
 0370257,-0.00000047,-0.00000043,-0.00429246,-0.00000030,0.00000011,-0.
 00014568,0.,0.,0.00000085,-0.00001379,0.00000411,0.02674988,-0.0000061
 9,-0.00010968,0.,-0.00002247,0.00013747,-0.00000001,0.00000960,-0.0000
 2817,0.00000010,0.00008728,0.00044817,-0.00000018,-0.00013157,-0.00007
 601,0.,0.00009320,0.00010425,-0.00000011,-0.00045526,0.00036916,0.0000
 0015,0.00065393,0.00104816,-0.00000031,-0.00293824,0.00385312,0.000001
 56,-0.00021128,-0.00004693,-0.00000012,-0.00029152,-0.00165260,0.00000
 006,-0.00012547,0.00010079,0.00000003,-0.00003595,-0.00027503,-0.00000
 006,0.00016518,-0.00000509,0.,0.00179867,-0.00013849,0.00000035,-0.017
 34239,-0.01317434,0.00000342,-0.00001855,0.00004013,0.,0.00169238,0.00
 172457,0.00000016,-0.28747876,-0.10652790,0.00003523,-0.00001890,0.000
 18191,0.,0.00067280,0.00026724,-0.00000062,-0.00001926,-0.00000348,0.,
 0.00053992,-0.00040028,-0.00000033,0.30337674,-0.00003829,0.00002206,0
 .,-0.00000618,-0.00000852,0.,-0.00021299,0.00021486,-0.00000004,-0.000
 22116,-0.00015030,0.00000015,0.00000350,0.00001497,0.,-0.00011878,-0.0
 0004926,0.00000008,0.00026466,-0.00027227,-0.00000012,0.00109859,-0.00
 113575,-0.00000015,0.00372799,-0.00145994,0.00000003,-0.00001433,-0.00
 026838,-0.00000010,0.00077499,0.00097020,-0.00000015,-0.00000573,0.000
 01539,0.00000004,0.00002590,0.00010055,0.,0.00000132,-0.00003040,-0.00
 000005,0.00001013,-0.00604707,0.00000141,0.01761254,0.01168687,-0.0000
 0267,0.00003663,0.00000260,0.00000002,-0.02920239,-0.00681845,0.000004
 14,-0.10657437,-0.10859090,0.00001781,-0.00133602,-0.00032859,0.000000
 09,-0.00043845,0.00054253,-0.00000023,0.00001013,0.00000506,0.,0.00038
 553,0.00054275,-0.00000046,0.11414559,0.11103941,0.,-0.00000006,-0.000
 02082,0.,0.00000001,-0.00001545,0.00000019,0.00000012,0.00020142,0.000
 00003,0.00000006,0.00015335,0.,0.,-0.00000103,0.00000013,0.00000006,0.
 00020986,-0.00000013,0.00000009,-0.00012323,-0.00000003,-0.00000037,-0
 .00092653,0.00000054,-0.00000009,0.00787713,-0.00000024,-0.00000009,-0
 .00141490,-0.00000011,-0.00000020,0.00002581,-0.00000002,0.00000008,0.
 00004605,-0.00000006,0.,-0.00018070,0.00000004,-0.00000005,-0.00004197
 ,-0.00000023,0.00000176,0.00746272,0.00000161,0.00000034,0.00450549,0.
 00000003,0.00000003,0.00001122,0.00000364,0.00000173,0.00414747,0.0000
 3507,0.00001699,-0.04047100,0.00000018,0.,-0.00021256,-0.00000064,-0.0
 0000025,-0.00424667,0.,0.,0.00003614,-0.00000059,-0.00000036,-0.003713
 44,-0.00003931,-0.00001982,0.02664961,-0.36700221,0.17184641,0.0000875
 9,0.00020903,-0.00072989,-0.00000025,0.00554829,0.02636467,0.00000576,
 -0.00141532,-0.00083896,0.00000049,-0.00164849,-0.00138322,-0.00000017
 ,-0.00927433,0.00507545,-0.00000240,-0.00162307,-0.00593730,0.00000259
 ,0.00193273,0.00445514,-0.00000524,0.00046503,-0.00088285,0.00000013,0
 .00603815,-0.03409676,0.00001392,0.00428231,0.00009931,-0.00000121,0.0
 1245822,0.02146978,0.00000148,-0.00620210,0.00080193,0.00000023,0.0062
 9640,-0.01118128,0.00000084,-0.00025155,0.00043442,-0.00000059,0.00066
 213,0.00048208,0.00000049,0.00325664,0.00428683,0.00000016,-0.00030814
 ,0.00037264,0.00000022,0.00007121,0.00046960,-0.00000013,-0.00050754,0
 .00014976,0.00000021,0.00024672,0.00003476,0.,0.00012015,-0.00040433,0
 .,0.00009300,-0.00001037,0.,-0.00001051,0.00005961,-0.00000004,0.34808
 885,0.14378314,-0.13121835,-0.00003896,-0.00014302,0.00088736,0.,0.006
 36176,-0.00846718,0.00000313,0.00056290,0.00059606,-0.00000030,-0.0015
 7827,0.00206374,-0.00000058,0.00064369,0.00084677,0.00000050,0.0011166
 5,0.00034933,0.00000103,0.00043024,-0.00079294,0.00000048,-0.00010035,
 -0.00006589,0.00000023,-0.00939182,-0.00109179,-0.00000236,-0.00126309
 ,-0.00015988,0.00000008,0.04102492,-0.03671639,-0.00001059,0.00045883,
 -0.00044075,-0.00000071,-0.00421024,-0.00576876,-0.00000146,0.00027219
 ,0.00020569,-0.00000081,0.00011804,-0.00012513,0.00000009,0.00156306,-
 0.00042383,0.00000050,0.00001854,-0.00006172,0.00000042,0.00001599,0.0
 0005838,-0.00000019,-0.00004348,0.00007396,0.00000018,-0.00004225,0.00
 000725,0.,-0.00010090,-0.00035737,0.00000026,0.00004611,0.00000834,-0.
 00000001,0.00002174,0.00000348,0.00000001,-0.18225240,0.18149445,0.000
 09516,-0.00005723,-0.01100784,0.00000008,-0.00000011,0.00002932,0.0000
 0407,0.00000514,-0.00780600,-0.00000007,0.00000002,0.00006926,-0.00000
 132,-0.00000124,0.00072675,-0.00000437,0.00000179,0.00048216,0.0000002
 3,-0.00000209,-0.00100179,0.00000056,0.00000468,0.00172469,0.00000098,
 0.00000027,0.00011949,0.00000530,-0.00001036,0.00004605,0.00000045,-0.
 00000021,-0.00017291,0.00000290,0.00000675,-0.00047350,-0.00000171,0.0
 0000024,0.00025893,0.00000213,0.00000044,0.00159485,-0.00000022,0.,0.0
 0018842,-0.00000013,0.00000042,-0.00012980,0.00000016,0.00000172,0.000
 92531,0.00000004,0.00000028,-0.00010773,0.00000021,-0.00000008,-0.0000
 1199,-0.00000048,0.00000008,-0.00001045,0.00000017,0.00000005,0.000001
 28,0.,0.00000010,-0.00025855,0.00000006,-0.00000001,0.00001706,0.,0.00
 000003,0.00002288,-0.00010434,0.00004868,0.01627360,-0.00034301,-0.000
 55309,-0.00000006,-0.47363771,0.19164561,-0.00003317,-0.00002315,-0.00
 017965,0.00000012,-0.00181018,0.00139355,-0.00000007,-0.00003696,-0.00
 012024,0.00000001,-0.00065641,-0.00059803,-0.00000005,0.00381241,-0.00
 220349,0.00000022,-0.00008052,0.00000669,-0.00000003,-0.00005003,0.000
 11893,0.00000001,0.00005664,0.00000972,-0.00000028,-0.00132403,-0.0022
 3879,0.00000050,0.00132919,0.00024308,0.00000043,0.00191145,-0.0003203
 2,0.00000034,-0.00135980,0.00040770,-0.00000039,0.00003932,0.00001609,
 0.00000002,0.00001569,-0.00001153,0.,0.00319440,-0.00648253,0.00000077
 ,-0.00000728,-0.00002713,0.,-0.00001015,0.00001456,0.,-0.00000356,-0.0
 0000191,0.,0.00000115,0.00000726,-0.00000002,-0.00103728,0.00023383,0.
 00000008,0.00000366,-0.00000168,0.,0.00000588,0.00000224,0.,-0.0000008
 9,0.00006766,0.,0.46996752,-0.00027063,0.00039891,0.00000005,0.1377340
 0,-0.10440059,0.00001275,-0.00007437,0.00039230,-0.00000003,-0.0017199
 8,0.00009645,0.00000026,0.00070423,0.00101602,-0.00000006,0.00106674,0
 .00075087,-0.00000024,-0.00389320,-0.00637068,0.00000003,-0.00015298,-
 0.00005952,0.00000015,-0.00008238,0.00019241,0.00000006,0.00066249,-0.
 00095955,0.00000001,0.00091137,-0.00021284,0.00000009,-0.00025673,0.00
 020344,0.00000020,0.04734920,-0.02887120,0.00000395,-0.00039663,-0.001
 72166,-0.00000038,-0.00006406,-0.00003141,-0.00000002,-0.00011110,0.00
 010769,-0.00000009,0.00225447,0.00290289,0.00000019,0.00000301,0.00004
 428,0.,0.00002904,-0.00005052,0.00000001,0.00001652,0.00000738,-0.0000
 0003,0.00004009,0.00000461,0.,-0.00247613,-0.00059851,0.00000007,-0.00
 001540,0.00000872,0.,-0.00002510,0.00000266,0.,0.00006992,-0.00007779,
 -0.00000001,-0.18135859,0.13738059,0.00000018,-0.00000024,-0.00009490,
 -0.00002894,0.00001562,-0.00421302,0.00000001,0.00000005,-0.00012895,0
 .00000066,0.00000038,0.00064422,-0.00000005,-0.00000015,-0.00008414,-0
 .00000038,-0.00000042,0.00145153,0.00000009,0.00000014,0.00199129,0.00
 000026,0.00000014,0.00039379,-0.00000029,-0.00000012,-0.00095176,0.,0.
 00000004,0.00004909,-0.00000003,0.00000009,-0.00020188,-0.00000011,0.0
 0000028,0.00045208,-0.00000302,0.00000145,-0.00206801,0.00000010,0.000
 00003,-0.00150195,0.00000001,-0.00000007,0.00005966,-0.00000016,-0.000
 00005,-0.00038189,-0.00000003,-0.00000052,-0.00079380,0.,0.00000003,-0
 .00007898,0.00000006,0.00000003,0.00025173,0.,0.,0.00000039,0.,0.00000
 003,0.00002046,0.00000026,0.00000018,0.00088725,0.,0.,0.00000115,0.,0.
 ,0.00001394,-0.00000014,0.00000007,0.00002019,0.00003155,-0.00001700,0
 .00414175,0.00948268,-0.00115986,-0.00000214,-0.00071591,0.00055021,0.
 00000007,0.00190093,0.00048026,0.00000103,0.00006213,0.00034161,-0.000
 00014,-0.06149731,0.10316871,-0.00000877,0.00148313,-0.00039804,-0.000
 00002,-0.00095430,0.00080241,0.00000002,0.00034215,0.00016737,-0.00000
 010,-0.00009097,-0.00012999,0.00000015,-0.00128107,-0.00032197,0.00000
 021,0.00003252,-0.00008689,0.00000020,-0.00519111,-0.00921802,-0.00000
 055,0.00263202,-0.00196300,-0.00000013,0.00374450,-0.04583249,0.000003
 34,0.00002993,0.00011606,-0.00000010,0.00016581,-0.00000258,-0.0000001
 5,-0.00761877,-0.00265136,0.00000017,-0.00003175,0.00001892,0.00000002
 ,0.00000531,0.00009777,0.00000003,-0.00006833,0.00001002,0.00000003,0.
 00001534,0.00000754,0.,-0.00003644,-0.00002630,0.,0.00002945,-0.000003
 25,0.,0.00001075,0.00000935,0.,-0.00152474,0.00262034,0.00000013,0.000
 04367,0.00005620,-0.00000003,0.05903039,-0.00286237,-0.00172519,0.0000
 0022,0.00004839,-0.00008494,0.00000003,-0.00071795,-0.00109964,-0.0000
 0069,0.00056979,0.00063266,-0.00000019,0.05536173,-0.49867417,0.000035
 50,-0.00072547,-0.00265840,-0.00000033,0.00199239,0.00096037,-0.000000
 34,0.00002640,-0.00020003,0.00000001,0.00014626,-0.00002225,-0.0000001
 5,0.00008038,0.00134497,0.00000034,-0.00184548,-0.00077921,0.00000051,
 0.00484716,0.00506725,0.00000047,-0.00085238,-0.00093845,0.00000009,-0
 .00967477,-0.02763999,0.00000135,0.00008464,0.00003824,-0.00000003,-0.
 00000578,-0.00009127,-0.00000015,-0.00105950,0.00305208,-0.00000022,0.
 00003618,-0.00007097,-0.00000006,-0.00001247,-0.00002653,0.00000011,0.
 00002258,-0.00000817,0.00000002,-0.00005587,0.00000731,0.,0.00003917,0
 .00007214,-0.00000010,0.00001412,-0.00000268,0.,0.00002081,-0.00000358
 ,0.,0.00124502,-0.00082704,0.00000066,-0.00006994,-0.00015494,0.000000
 02,-0.04665303,0.52383242,-0.00000134,-0.00000042,-0.00091039,0.000000
 07,0.,-0.00036653,-0.00000034,-0.00000005,-0.00002359,-0.00000003,-0.0
 0000010,0.00000738,-0.00000471,0.00003736,-0.00732696,0.00000031,0.000
 00026,-0.00117772,-0.00000018,-0.00000030,-0.00030967,0.00000004,-0.00
 000004,-0.00013014,0.,0.00000003,0.00024512,-0.00000013,-0.00000020,0.
 00031438,0.00000016,0.,-0.00005010,-0.00000036,0.00000061,0.00196799,-
 0.00000043,0.00000020,0.00255789,-0.00000055,-0.00000092,-0.00236039,-
 0.00000002,0.00000003,-0.00005562,0.,0.00000004,-0.00008678,0.00000034
 ,0.00000034,0.00132578,0.00000005,0.00000002,0.00005183,-0.00000002,-0
 .00000002,0.00000828,0.,0.,0.00000857,0.,0.,0.00000573,0.00000004,-0.0
 0000009,-0.00067652,0.,0.,0.00000084,0.,0.,0.00000521,0.00000038,0.000
 00031,-0.00151968,0.,0.00000002,0.00012073,0.00000672,-0.00003705,0.00
 837435\\0.00002636,-0.00002915,-0.00000654,0.00007905,-0.00002219,0.00
 000198,-0.00003604,0.00003834,-0.00004884,-0.00004622,0.00002024,0.000
 03730,-0.00003378,0.00000601,0.00000134,-0.00001191,0.00003617,-0.0000
 1577,-0.00002868,-0.00002051,0.00001996,0.00001958,-0.00001579,-0.0000
 1765,-0.00000240,0.00002203,0.00002560,0.00000319,-0.00004822,0.000093
 61,0.00003010,-0.00000699,-0.00010223,-0.00000510,0.00003576,-0.000008
 54,-0.00003231,-0.00001651,0.00000477,0.00002367,-0.00001551,-0.000001
 40,-0.00002429,-0.00000489,-0.00000617,-0.00001118,-0.00000255,0.00000
 602,0.00005972,0.00007016,-0.00000038,0.00002489,0.00003407,0.00000031
 ,0.00001737,-0.00003863,-0.00000081,0.00000165,-0.00000152,-0.00000011
 ,0.00000203,0.00000507,0.00000002,-0.00000106,-0.00000745,-0.00000019,
 -0.00000579,-0.00000023,0.00000114,-0.00000635,-0.00000113,-0.00000115
 ,-0.00001005,0.00000025,0.00001857,-0.00002767,-0.00000306,0.00000054,
 -0.00000478,-0.00003377,-0.00000139\\\@


 THERE IS NO SCIENCE WITHOUT FANCY, NOR ART WITHOUT FACTS.
     -- VLADIMIR NABAKOV
 Job cpu time:       0 days  8 hours 48 minutes  8.8 seconds.
 Elapsed time:       0 days  0 hours 33 minutes  9.1 seconds.
 File lengths (MBytes):  RWF=    564 Int=      0 D2E=      0 Chk=     19 Scr=      1
 Normal termination of Gaussian 16 at Sun Sep 21 12:15:48 2025.
