 Entering Gaussian System, Link 0=g16
 Input=PSUC0151.gjf
 Output=PSUC0151.log
 Initial command:
 /usr/local/g16/l1.exe "/dados_01/scratch/Gau-2202879.inp" -scrdir="/dados_01/scratch/"
 Entering Link 1 = /usr/local/g16/l1.exe PID=   2202880.
  
 Copyright (c) 1988-2017, Gaussian, Inc.  All Rights Reserved.
  
 This is part of the Gaussian(R) 16 program.  It is based on
 the Gaussian(R) 09 system (copyright 2009, Gaussian, Inc.),
 the Gaussian(R) 03 system (copyright 2003, Gaussian, Inc.),
 the Gaussian(R) 98 system (copyright 1998, Gaussian, Inc.),
 the Gaussian(R) 94 system (copyright 1995, Gaussian, Inc.),
 the Gaussian 92(TM) system (copyright 1992, Gaussian, Inc.),
 the Gaussian 90(TM) system (copyright 1990, Gaussian, Inc.),
 the Gaussian 88(TM) system (copyright 1988, Gaussian, Inc.),
 the Gaussian 86(TM) system (copyright 1986, Carnegie Mellon
 University), and the Gaussian 82(TM) system (copyright 1983,
 Carnegie Mellon University). Gaussian is a federally registered
 trademark of Gaussian, Inc.
  
 This software contains proprietary and confidential information,
 including trade secrets, belonging to Gaussian, Inc.
  
 This software is provided under written license and may be
 used, copied, transmitted, or stored only in accord with that
 written license.
  
 The following legend is applicable only to US Government
 contracts under FAR:
  
                    RESTRICTED RIGHTS LEGEND
  
 Use, reproduction and disclosure by the US Government is
 subject to restrictions as set forth in subparagraphs (a)
 and (c) of the Commercial Computer Software - Restricted
 Rights clause in FAR 52.227-19.
  
 Gaussian, Inc.
 340 Quinnipiac St., Bldg. 40, Wallingford CT 06492
  
  
 ---------------------------------------------------------------
 Warning -- This program may not be used in any manner that
 competes with the business of Gaussian, Inc. or will provide
 assistance to any competitor of Gaussian, Inc.  The licensee
 of this program is prohibited from giving any competitor of
 Gaussian, Inc. access to this program.  By using this program,
 the user acknowledges that Gaussian, Inc. is engaged in the
 business of creating and licensing software in the field of
 computational chemistry and represents and warrants to the
 licensee that it is not a competitor of Gaussian, Inc. and that
 it will not use this program in any manner prohibited above.
 ---------------------------------------------------------------
  

 Cite this work as:
 Gaussian 16, Revision B.01,
 M. J. Frisch, G. W. Trucks, H. B. Schlegel, G. E. Scuseria, 
 M. A. Robb, J. R. Cheeseman, G. Scalmani, V. Barone, 
 G. A. Petersson, H. Nakatsuji, X. Li, M. Caricato, A. V. Marenich, 
 J. Bloino, B. G. Janesko, R. Gomperts, B. Mennucci, H. P. Hratchian, 
 J. V. Ortiz, A. F. Izmaylov, J. L. Sonnenberg, D. Williams-Young, 
 F. Ding, F. Lipparini, F. Egidi, J. Goings, B. Peng, A. Petrone, 
 T. Henderson, D. Ranasinghe, V. G. Zakrzewski, J. Gao, N. Rega, 
 G. Zheng, W. Liang, M. Hada, M. Ehara, K. Toyota, R. Fukuda, 
 J. Hasegawa, M. Ishida, T. Nakajima, Y. Honda, O. Kitao, H. Nakai, 
 T. Vreven, K. Throssell, J. A. Montgomery, Jr., J. E. Peralta, 
 F. Ogliaro, M. J. Bearpark, J. J. Heyd, E. N. Brothers, K. N. Kudin, 
 V. N. Staroverov, T. A. Keith, R. Kobayashi, J. Normand, 
 K. Raghavachari, A. P. Rendell, J. C. Burant, S. S. Iyengar, 
 J. Tomasi, M. Cossi, J. M. Millam, M. Klene, C. Adamo, R. Cammi, 
 J. W. Ochterski, R. L. Martin, K. Morokuma, O. Farkas, 
 J. B. Foresman, and D. J. Fox, Gaussian, Inc., Wallingford CT, 2016.
 
 ******************************************
 Gaussian 16:  ES64L-G16RevB.01 20-Dec-2017
                21-Sep-2025 
 ******************************************
 %nprocs=16
 Will use up to   16 processors via shared memory.
 %mem=40GB
 %chk=PSUC0151.chk
 ----------------------------------------------------------------------
 # opt freq=noraman M08HX/6-311++G** scf=xqc Empiricaldispersion=pfd In
 t(Grid=ultraFine)
 ----------------------------------------------------------------------
 1/18=20,19=15,26=4,38=1/1,3;
 2/9=110,12=2,17=6,18=5,40=1/2;
 3/5=4,6=6,7=1111,11=2,25=1,30=1,71=1,74=-74,75=-5,124=11/1,2,3;
 4//1;
 5/5=2,8=3,13=1,38=5/2,8;
 6/7=2,8=2,9=2,10=2,28=1/1;
 7//1,2,3,16;
 1/18=20,19=15,26=4/3(2);
 2/9=110/2;
 99//99;
 2/9=110/2;
 3/5=4,6=6,7=1111,11=2,25=1,30=1,71=1,74=-74,75=-5,124=11/1,2,3;
 4/5=5,16=3,69=1/1;
 5/5=2,8=3,13=1,38=5/2,8;
 7//1,2,3,16;
 1/18=20,19=15,26=4/3(-5);
 2/9=110/2;
 6/7=2,8=2,9=2,10=2,19=2,28=1/1;
 99/9=1/99;
 --------
 PSUC0151
 --------
 Symbolic Z-matrix:
 Charge =  0 Multiplicity = 1
 O                     2.5541    0.7505    0.0505 
 O                     0.9041    2.1718   -0.652 
 O                     3.7091   -1.1221    0.6853 
 C                     0.5809   -0.238    -0.702 
 C                     1.3724   -1.2627    0.0868 
 C                    -0.8491   -0.1806   -0.2817 
 C                     1.3132    1.0421   -0.4329 
 C                     2.6846   -0.5819    0.2979 
 C                    -1.8061   -0.9355   -0.9598 
 C                    -1.2293    0.6282    0.7891 
 C                    -3.1436   -0.8814   -0.5671 
 C                    -2.5667    0.6822    1.182 
 C                    -3.5237   -0.0727    0.5038 
 H                     0.67     -0.4289   -1.7792 
 H                     1.5079   -2.1827   -0.4892 
 H                     0.9372   -1.4958    1.0641 
 H                    -1.522    -1.5708   -1.7944 
 H                    -0.5091    1.2071    1.3602 
 H                    -3.8887   -1.4698   -1.0945 
 H                    -2.8622    1.3064    2.0202 
 H                    -4.5647   -0.032     0.8108 
 

 GradGradGradGradGradGradGradGradGradGradGradGradGradGradGradGradGradGrad
 Berny optimization.
 Initialization pass.
                           ----------------------------
                           !    Initial Parameters    !
                           ! (Angstroms and Degrees)  !
 --------------------------                            --------------------------
 ! Name  Definition              Value          Derivative Info.                !
 --------------------------------------------------------------------------------
 ! R1    R(1,7)                  1.3633         estimate D2E/DX2                !
 ! R2    R(1,8)                  1.3614         estimate D2E/DX2                !
 ! R3    R(2,7)                  1.2213         estimate D2E/DX2                !
 ! R4    R(3,8)                  1.2213         estimate D2E/DX2                !
 ! R5    R(4,5)                  1.5161         estimate D2E/DX2                !
 ! R6    R(4,6)                  1.4916         estimate D2E/DX2                !
 ! R7    R(4,7)                  1.4991         estimate D2E/DX2                !
 ! R8    R(4,14)                 1.0976         estimate D2E/DX2                !
 ! R9    R(5,8)                  1.4933         estimate D2E/DX2                !
 ! R10   R(5,15)                 1.0939         estimate D2E/DX2                !
 ! R11   R(5,16)                 1.0949         estimate D2E/DX2                !
 ! R12   R(6,9)                  1.3948         estimate D2E/DX2                !
 ! R13   R(6,10)                 1.3947         estimate D2E/DX2                !
 ! R14   R(9,11)                 1.395          estimate D2E/DX2                !
 ! R15   R(9,17)                 1.0867         estimate D2E/DX2                !
 ! R16   R(10,12)                1.395          estimate D2E/DX2                !
 ! R17   R(10,18)                1.0863         estimate D2E/DX2                !
 ! R18   R(11,13)                1.3947         estimate D2E/DX2                !
 ! R19   R(11,19)                1.0861         estimate D2E/DX2                !
 ! R20   R(12,13)                1.3949         estimate D2E/DX2                !
 ! R21   R(12,20)                1.0861         estimate D2E/DX2                !
 ! R22   R(13,21)                1.0861         estimate D2E/DX2                !
 ! A1    A(7,1,8)              111.1627         estimate D2E/DX2                !
 ! A2    A(5,4,6)              112.3275         estimate D2E/DX2                !
 ! A3    A(5,4,7)              103.2214         estimate D2E/DX2                !
 ! A4    A(5,4,14)             110.5282         estimate D2E/DX2                !
 ! A5    A(6,4,7)              112.6361         estimate D2E/DX2                !
 ! A6    A(6,4,14)             111.1652         estimate D2E/DX2                !
 ! A7    A(7,4,14)             106.5606         estimate D2E/DX2                !
 ! A8    A(4,5,8)              102.9534         estimate D2E/DX2                !
 ! A9    A(4,5,15)             111.0476         estimate D2E/DX2                !
 ! A10   A(4,5,16)             113.626          estimate D2E/DX2                !
 ! A11   A(8,5,15)             110.428          estimate D2E/DX2                !
 ! A12   A(8,5,16)             108.672          estimate D2E/DX2                !
 ! A13   A(15,5,16)            109.8884         estimate D2E/DX2                !
 ! A14   A(4,6,9)              119.9974         estimate D2E/DX2                !
 ! A15   A(4,6,10)             119.9991         estimate D2E/DX2                !
 ! A16   A(9,6,10)             120.0036         estimate D2E/DX2                !
 ! A17   A(1,7,2)              124.497          estimate D2E/DX2                !
 ! A18   A(1,7,4)              109.0044         estimate D2E/DX2                !
 ! A19   A(2,7,4)              126.4432         estimate D2E/DX2                !
 ! A20   A(1,8,3)              124.8162         estimate D2E/DX2                !
 ! A21   A(1,8,5)              109.6492         estimate D2E/DX2                !
 ! A22   A(3,8,5)              125.4741         estimate D2E/DX2                !
 ! A23   A(6,9,11)             119.9987         estimate D2E/DX2                !
 ! A24   A(6,9,17)             120.6912         estimate D2E/DX2                !
 ! A25   A(11,9,17)            119.3101         estimate D2E/DX2                !
 ! A26   A(6,10,12)            120.002          estimate D2E/DX2                !
 ! A27   A(6,10,18)            122.1369         estimate D2E/DX2                !
 ! A28   A(12,10,18)           117.8357         estimate D2E/DX2                !
 ! A29   A(9,11,13)            119.9946         estimate D2E/DX2                !
 ! A30   A(9,11,19)            120.0041         estimate D2E/DX2                !
 ! A31   A(13,11,19)           120.0013         estimate D2E/DX2                !
 ! A32   A(10,12,13)           119.9919         estimate D2E/DX2                !
 ! A33   A(10,12,20)           120.0319         estimate D2E/DX2                !
 ! A34   A(13,12,20)           119.9748         estimate D2E/DX2                !
 ! A35   A(11,13,12)           120.0093         estimate D2E/DX2                !
 ! A36   A(11,13,21)           119.9982         estimate D2E/DX2                !
 ! A37   A(12,13,21)           119.9924         estimate D2E/DX2                !
 ! D1    D(8,1,7,2)            174.8754         estimate D2E/DX2                !
 ! D2    D(8,1,7,4)             -7.6853         estimate D2E/DX2                !
 ! D3    D(7,1,8,3)            176.9632         estimate D2E/DX2                !
 ! D4    D(7,1,8,5)             -5.7399         estimate D2E/DX2                !
 ! D5    D(6,4,5,8)           -140.9314         estimate D2E/DX2                !
 ! D6    D(6,4,5,15)           100.8875         estimate D2E/DX2                !
 ! D7    D(6,4,5,16)           -23.5973         estimate D2E/DX2                !
 ! D8    D(7,4,5,8)            -19.338          estimate D2E/DX2                !
 ! D9    D(7,4,5,15)          -137.5192         estimate D2E/DX2                !
 ! D10   D(7,4,5,16)            97.996          estimate D2E/DX2                !
 ! D11   D(14,4,5,8)            94.2787         estimate D2E/DX2                !
 ! D12   D(14,4,5,15)          -23.9024         estimate D2E/DX2                !
 ! D13   D(14,4,5,16)         -148.3872         estimate D2E/DX2                !
 ! D14   D(5,4,6,9)            -93.9647         estimate D2E/DX2                !
 ! D15   D(5,4,6,10)            86.0531         estimate D2E/DX2                !
 ! D16   D(7,4,6,9)            149.9859         estimate D2E/DX2                !
 ! D17   D(7,4,6,10)           -29.9962         estimate D2E/DX2                !
 ! D18   D(14,4,6,9)            30.4737         estimate D2E/DX2                !
 ! D19   D(14,4,6,10)         -149.5085         estimate D2E/DX2                !
 ! D20   D(5,4,7,1)             17.3181         estimate D2E/DX2                !
 ! D21   D(5,4,7,2)           -165.3054         estimate D2E/DX2                !
 ! D22   D(6,4,7,1)            138.703          estimate D2E/DX2                !
 ! D23   D(6,4,7,2)            -43.9205         estimate D2E/DX2                !
 ! D24   D(14,4,7,1)           -99.148          estimate D2E/DX2                !
 ! D25   D(14,4,7,2)            78.2285         estimate D2E/DX2                !
 ! D26   D(4,5,8,1)             16.1909         estimate D2E/DX2                !
 ! D27   D(4,5,8,3)           -166.5342         estimate D2E/DX2                !
 ! D28   D(15,5,8,1)           134.8059         estimate D2E/DX2                !
 ! D29   D(15,5,8,3)           -47.9191         estimate D2E/DX2                !
 ! D30   D(16,5,8,1)          -104.5933         estimate D2E/DX2                !
 ! D31   D(16,5,8,3)            72.6817         estimate D2E/DX2                !
 ! D32   D(4,6,9,11)          -179.9728         estimate D2E/DX2                !
 ! D33   D(4,6,9,17)             0.1312         estimate D2E/DX2                !
 ! D34   D(10,6,9,11)            0.0094         estimate D2E/DX2                !
 ! D35   D(10,6,9,17)         -179.8867         estimate D2E/DX2                !
 ! D36   D(4,6,10,12)          179.9831         estimate D2E/DX2                !
 ! D37   D(4,6,10,18)           -1.8911         estimate D2E/DX2                !
 ! D38   D(9,6,10,12)            0.0009         estimate D2E/DX2                !
 ! D39   D(9,6,10,18)          178.1267         estimate D2E/DX2                !
 ! D40   D(6,9,11,13)           -0.0167         estimate D2E/DX2                !
 ! D41   D(6,9,11,19)         -179.9485         estimate D2E/DX2                !
 ! D42   D(17,9,11,13)         179.8808         estimate D2E/DX2                !
 ! D43   D(17,9,11,19)          -0.051          estimate D2E/DX2                !
 ! D44   D(6,10,12,13)          -0.0039         estimate D2E/DX2                !
 ! D45   D(6,10,12,20)         179.5667         estimate D2E/DX2                !
 ! D46   D(18,10,12,13)       -178.2092         estimate D2E/DX2                !
 ! D47   D(18,10,12,20)          1.3614         estimate D2E/DX2                !
 ! D48   D(9,11,13,12)           0.0138         estimate D2E/DX2                !
 ! D49   D(9,11,13,21)        -179.8828         estimate D2E/DX2                !
 ! D50   D(19,11,13,12)        179.9456         estimate D2E/DX2                !
 ! D51   D(19,11,13,21)          0.049          estimate D2E/DX2                !
 ! D52   D(10,12,13,11)         -0.0034         estimate D2E/DX2                !
 ! D53   D(10,12,13,21)        179.8931         estimate D2E/DX2                !
 ! D54   D(20,12,13,11)       -179.5743         estimate D2E/DX2                !
 ! D55   D(20,12,13,21)          0.3223         estimate D2E/DX2                !
 --------------------------------------------------------------------------------
 Trust Radius=3.00D-01 FncErr=1.00D-07 GrdErr=1.00D-06 EigMax=2.50D+02 EigMin=1.00D-04
 Number of steps in this run=    124 maximum allowed number of steps=    126.
 GradGradGradGradGradGradGradGradGradGradGradGradGradGradGradGradGradGrad

                          Input orientation:                          
 ---------------------------------------------------------------------
 Center     Atomic      Atomic             Coordinates (Angstroms)
 Number     Number       Type             X           Y           Z
 ---------------------------------------------------------------------
      1          8           0        2.554100    0.750500    0.050500
      2          8           0        0.904100    2.171800   -0.652000
      3          8           0        3.709100   -1.122100    0.685300
      4          6           0        0.580900   -0.238000   -0.702000
      5          6           0        1.372400   -1.262700    0.086800
      6          6           0       -0.849100   -0.180600   -0.281700
      7          6           0        1.313200    1.042100   -0.432900
      8          6           0        2.684600   -0.581900    0.297900
      9          6           0       -1.806100   -0.935500   -0.959800
     10          6           0       -1.229300    0.628200    0.789100
     11          6           0       -3.143600   -0.881400   -0.567100
     12          6           0       -2.566700    0.682200    1.182000
     13          6           0       -3.523700   -0.072700    0.503800
     14          1           0        0.670000   -0.428900   -1.779200
     15          1           0        1.507900   -2.182700   -0.489200
     16          1           0        0.937200   -1.495800    1.064100
     17          1           0       -1.522000   -1.570800   -1.794400
     18          1           0       -0.509100    1.207100    1.360200
     19          1           0       -3.888700   -1.469800   -1.094500
     20          1           0       -2.862200    1.306400    2.020200
     21          1           0       -4.564700   -0.032000    0.810800
 ---------------------------------------------------------------------
                    Distance matrix (angstroms):
                    1          2          3          4          5
     1  O    0.000000
     2  O    2.288253   0.000000
     3  O    2.289897   4.528374   0.000000
     4  C    2.331718   2.431891   3.534384   0.000000
     5  C    2.334675   3.544139   2.416224   1.516142   0.000000
     6  C    3.543878   2.957130   4.753809   1.491592   2.498358
     7  C    1.363282   1.221307   3.416792   1.499111   2.363408
     8  C    1.361443   3.413994   1.221268   2.354490   1.493292
     9  C    4.782745   4.134639   5.758351   2.500147   3.362335
    10  C    3.856761   3.001810   5.240431   2.500101   3.292047
    11  C    5.958885   5.070810   6.970362   3.782071   4.578999
    12  C    5.244764   4.198680   6.548883   3.782011   4.527539
    13  C    6.150024   5.096966   7.310785   4.281240   5.055866
    14  H    2.878996   2.844121   3.973716   1.097607   2.161144
    15  H    3.160613   4.399176   2.711015   2.164826   1.093863
    16  H    2.947476   4.049368   2.822511   2.197298   1.094920
    17  H    5.040504   4.604139   5.806432   2.718802   3.465745
    18  H    3.362587   2.641350   4.865581   2.743917   3.355816
    19  H    6.910169   6.035560   7.811219   4.652818   5.396066
    20  H    5.790082   4.698360   7.131729   4.653008   5.316968
    21  H    7.201922   6.074890   8.346247   5.367327   6.106386
                    6          7          8          9         10
     6  C    0.000000
     7  C    2.488654   0.000000
     8  C    3.603334   2.247706   0.000000
     9  C    1.394827   3.730758   4.676882   0.000000
    10  C    1.394748   2.851123   4.126043   2.415886   0.000000
    11  C    2.416051   4.856020   5.899647   1.395008   2.789752
    12  C    2.415987   4.217944   5.473183   2.789762   1.394964
    13  C    2.789648   5.051315   6.232549   2.415926   2.415974
    14  H    2.147516   2.095250   2.897648   2.656903   3.364664
    15  H    3.099502   3.231163   2.136986   3.572054   4.126436
    16  H    2.594571   2.970408   2.115581   3.454823   3.046428
    17  H    2.161877   4.088923   4.801159   1.086681   3.405253
    18  H    2.176499   2.561876   3.811656   3.413992   1.086264
    19  H    3.400272   5.814389   6.777567   2.154262   3.875818
    20  H    3.400365   4.849899   6.107289   3.875805   2.154513
    21  H    3.875735   6.103293   7.288196   3.400178   3.400181
                   11         12         13         14         15
    11  C    0.000000
    12  C    2.415990   0.000000
    13  C    1.394740   1.394876   0.000000
    14  H    4.027094   4.525425   4.788119   0.000000
    15  H    4.830725   5.253849   5.545732   2.332808   0.000000
    16  H    4.437480   4.127336   4.715801   3.048611   1.791723
    17  H    2.147353   3.876385   3.396002   2.471645   3.355333
    18  H    3.875166   2.130961   3.385133   3.731301   4.356525
    19  H    1.086066   3.400182   2.153991   4.725890   5.477034
    20  H    3.399967   1.086059   2.153826   5.470205   6.129330
    21  H    2.153976   2.154037   1.086088   5.853863   6.572061
                   16         17         18         19         20
    16  H    0.000000
    17  H    3.771513   0.000000
    18  H    3.079793   4.323679   0.000000
    19  H    5.286733   2.470087   4.961153   0.000000
    20  H    4.816834   4.962418   2.445923   4.296783   0.000000
    21  H    5.698928   4.291037   4.276108   2.480809   2.480417
                   21
    21  H    0.000000
 Stoichiometry    C10H8O3
 Framework group  C1[X(C10H8O3)]
 Deg. of freedom    57
 Full point group                 C1      NOp   1
 Largest Abelian subgroup         C1      NOp   1
 Largest concise Abelian subgroup C1      NOp   1
                         Standard orientation:                         
 ---------------------------------------------------------------------
 Center     Atomic      Atomic             Coordinates (Angstroms)
 Number     Number       Type             X           Y           Z
 ---------------------------------------------------------------------
      1          8           0        2.506379    0.773521   -0.020518
      2          8           0        0.850572    2.120859   -0.844582
      3          8           0        3.669030   -1.031329    0.775966
      4          6           0        0.537208   -0.285303   -0.682461
      5          6           0        1.332906   -1.233482    0.193044
      6          6           0       -0.893002   -0.196994   -0.268279
      7          6           0        1.264285    1.016460   -0.527197
      8          6           0        2.642323   -0.531437    0.342982
      9          6           0       -1.846932   -1.012455   -0.877034
     10          6           0       -1.276470    0.701241    0.727437
     11          6           0       -3.184631   -0.929483   -0.490092
     12          6           0       -2.614068    0.784131    1.114587
     13          6           0       -3.567998   -0.031339    0.505732
     14          1           0        0.627056   -0.569779   -1.738748
     15          1           0        1.472144   -2.199990   -0.299918
     16          1           0        0.898689   -1.381548    1.187218
     17          1           0       -1.560265   -1.717492   -1.652676
     18          1           0       -0.558622    1.331018    1.245167
     19          1           0       -3.927338   -1.564984   -0.963446
     20          1           0       -2.912089    1.478381    1.894795
     21          1           0       -4.609147    0.031957    0.808370
 ---------------------------------------------------------------------
 Rotational constants (GHZ):           1.8744487           0.4978275           0.4512879
 Standard basis: 6-311++G(d,p) (5D, 7F)
 There are   355 symmetry adapted cartesian basis functions of A   symmetry.
 There are   342 symmetry adapted basis functions of A   symmetry.
   342 basis functions,   540 primitive gaussians,   355 cartesian basis functions
    46 alpha electrons       46 beta electrons
       nuclear repulsion energy       748.2776114027 Hartrees.
 NAtoms=   21 NActive=   21 NUniq=   21 SFac= 1.00D+00 NAtFMM=   60 NAOKFM=F Big=F
 Integral buffers will be    131072 words long.
 Raffenetti 2 integral format.
 Two-electron integral symmetry is turned on.
 R6APFD:  NTU= -4 IXU= 1 FactS= 1.050
 Nuclear repulsion after empirical dispersion term =      748.2610675674 Hartrees.
 One-electron integrals computed using PRISM.
 NBasis=   342 RedAO= T EigKep=  1.46D-06  NBF=   342
 NBsUse=   341 1.00D-06 EigRej=  6.82D-07 NBFU=   341
 ExpMin= 3.60D-02 ExpMax= 8.59D+03 ExpMxC= 1.30D+03 IAcc=3 IRadAn=         5 AccDes= 0.00D+00
 Harris functional with IExCor= 1009 and IRadAn=       5 diagonalized for initial guess.
 HarFok:  IExCor= 1009 AccDes= 0.00D+00 IRadAn=         5 IDoV= 1 UseB2=F ITyADJ=14
 ICtDFT=  3500011 ScaDFX=  1.000000  1.000000  1.000000  1.000000
 FoFCou: FMM=F IPFlag=           0 FMFlag=      100000 FMFlg1=           0
         NFxFlg=           0 DoJE=T BraDBF=F KetDBF=T FulRan=T
         wScrn=  0.000000 ICntrl=       500 IOpCl=  0 I1Cent=   200000004 NGrid=           0
         NMat0=    1 NMatS0=      1 NMatT0=    0 NMatD0=    1 NMtDS0=    0 NMtDT0=    0
 Petite list used in FoFCou.
 Requested convergence on RMS density matrix=1.00D-08 within  32 cycles.
 Requested convergence on MAX density matrix=1.00D-06.
 Requested convergence on             energy=1.00D-06.
 No special actions if energy rises.
 SCF Done:  E(RM08HX) =  -611.546284444     A.U. after   16 cycles
            NFock= 16  Conv=0.48D-08     -V/T= 2.0043
 QCSCF skips out because SCF is already converged.

 **********************************************************************

            Population analysis using the SCF Density.

 **********************************************************************

 Orbital symmetries:
       Occupied  (A) (A) (A) (A) (A) (A) (A) (A) (A) (A) (A) (A)
                 (A) (A) (A) (A) (A) (A) (A) (A) (A) (A) (A) (A)
                 (A) (A) (A) (A) (A) (A) (A) (A) (A) (A) (A) (A)
                 (A) (A) (A) (A) (A) (A) (A) (A) (A) (A)
       Virtual   (A) (A) (A) (A) (A) (A) (A) (A) (A) (A) (A) (A)
                 (A) (A) (A) (A) (A) (A) (A) (A) (A) (A) (A) (A)
                 (A) (A) (A) (A) (A) (A) (A) (A) (A) (A) (A) (A)
                 (A) (A) (A) (A) (A) (A) (A) (A) (A) (A) (A) (A)
                 (A) (A) (A) (A) (A) (A) (A) (A) (A) (A) (A) (A)
                 (A) (A) (A) (A) (A) (A) (A) (A) (A) (A) (A) (A)
                 (A) (A) (A) (A) (A) (A) (A) (A) (A) (A) (A) (A)
                 (A) (A) (A) (A) (A) (A) (A) (A) (A) (A) (A) (A)
                 (A) (A) (A) (A) (A) (A) (A) (A) (A) (A) (A) (A)
                 (A) (A) (A) (A) (A) (A) (A) (A) (A) (A) (A) (A)
                 (A) (A) (A) (A) (A) (A) (A) (A) (A) (A) (A) (A)
                 (A) (A) (A) (A) (A) (A) (A) (A) (A) (A) (A) (A)
                 (A) (A) (A) (A) (A) (A) (A) (A) (A) (A) (A) (A)
                 (A) (A) (A) (A) (A) (A) (A) (A) (A) (A) (A) (A)
                 (A) (A) (A) (A) (A) (A) (A) (A) (A) (A) (A) (A)
                 (A) (A) (A) (A) (A) (A) (A) (A) (A) (A) (A) (A)
                 (A) (A) (A) (A) (A) (A) (A) (A) (A) (A) (A) (A)
                 (A) (A) (A) (A) (A) (A) (A) (A) (A) (A) (A) (A)
                 (A) (A) (A) (A) (A) (A) (A) (A) (A) (A) (A) (A)
                 (A) (A) (A) (A) (A) (A) (A) (A) (A) (A) (A) (A)
                 (A) (A) (A) (A) (A) (A) (A) (A) (A) (A) (A) (A)
                 (A) (A) (A) (A) (A) (A) (A) (A) (A) (A) (A) (A)
                 (A) (A) (A) (A) (A) (A) (A) (A) (A) (A) (A) (A)
                 (A) (A) (A) (A) (A) (A) (A) (A) (A) (A) (A) (A)
                 (A) (A) (A) (A) (A) (A) (A)
 The electronic state is 1-A.
 Alpha  occ. eigenvalues --  -19.71516 -19.63754 -19.63439 -10.70627 -10.70535
 Alpha  occ. eigenvalues --  -10.59060 -10.58041 -10.57195 -10.55775 -10.55608
 Alpha  occ. eigenvalues --  -10.55517 -10.55418 -10.55234  -1.30462  -1.20186
 Alpha  occ. eigenvalues --   -1.16757  -1.00637  -0.96162  -0.87699  -0.87136
 Alpha  occ. eigenvalues --   -0.82959  -0.77127  -0.72519  -0.71154  -0.67207
 Alpha  occ. eigenvalues --   -0.63795  -0.60694  -0.59566  -0.57698  -0.55965
 Alpha  occ. eigenvalues --   -0.54740  -0.53783  -0.53536  -0.51712  -0.51117
 Alpha  occ. eigenvalues --   -0.50646  -0.49107  -0.45986  -0.44963  -0.43024
 Alpha  occ. eigenvalues --   -0.42705  -0.41553  -0.39669  -0.37683  -0.33069
 Alpha  occ. eigenvalues --   -0.32384
 Alpha virt. eigenvalues --   -0.04311  -0.02713  -0.02504  -0.01946  -0.01626
 Alpha virt. eigenvalues --   -0.00840  -0.00660  -0.00185   0.00287   0.00750
 Alpha virt. eigenvalues --    0.01887   0.02931   0.02958   0.03028   0.03221
 Alpha virt. eigenvalues --    0.05040   0.05660   0.06371   0.06669   0.06908
 Alpha virt. eigenvalues --    0.07572   0.08260   0.08779   0.09698   0.09861
 Alpha virt. eigenvalues --    0.10551   0.10747   0.10992   0.11148   0.11355
 Alpha virt. eigenvalues --    0.11809   0.11971   0.12338   0.12662   0.13696
 Alpha virt. eigenvalues --    0.14216   0.14460   0.15312   0.15972   0.16008
 Alpha virt. eigenvalues --    0.16154   0.16974   0.18127   0.18368   0.18596
 Alpha virt. eigenvalues --    0.19657   0.20193   0.20937   0.21228   0.22101
 Alpha virt. eigenvalues --    0.22685   0.23533   0.24252   0.24840   0.25837
 Alpha virt. eigenvalues --    0.25911   0.27302   0.27837   0.28166   0.28679
 Alpha virt. eigenvalues --    0.29355   0.29473   0.29730   0.30001   0.30640
 Alpha virt. eigenvalues --    0.31057   0.31385   0.32049   0.32775   0.33308
 Alpha virt. eigenvalues --    0.34279   0.35017   0.35570   0.36156   0.36743
 Alpha virt. eigenvalues --    0.37294   0.38309   0.39431   0.40832   0.42048
 Alpha virt. eigenvalues --    0.42323   0.44732   0.47016   0.49192   0.49378
 Alpha virt. eigenvalues --    0.52965   0.54230   0.55928   0.56191   0.56970
 Alpha virt. eigenvalues --    0.57392   0.57842   0.59208   0.60817   0.61412
 Alpha virt. eigenvalues --    0.61939   0.63557   0.64184   0.64845   0.66559
 Alpha virt. eigenvalues --    0.67090   0.67815   0.68474   0.69799   0.70559
 Alpha virt. eigenvalues --    0.71520   0.71941   0.73293   0.73833   0.74686
 Alpha virt. eigenvalues --    0.74937   0.76422   0.77957   0.78348   0.79289
 Alpha virt. eigenvalues --    0.81062   0.82992   0.84937   0.85724   0.86213
 Alpha virt. eigenvalues --    0.86755   0.87397   0.87847   0.90587   0.91442
 Alpha virt. eigenvalues --    0.93992   0.94727   0.96680   0.98807   1.02161
 Alpha virt. eigenvalues --    1.03178   1.05952   1.06453   1.09150   1.12058
 Alpha virt. eigenvalues --    1.12382   1.14722   1.15694   1.16599   1.18764
 Alpha virt. eigenvalues --    1.19294   1.20796   1.21724   1.22673   1.23470
 Alpha virt. eigenvalues --    1.25029   1.28047   1.30089   1.30317   1.33675
 Alpha virt. eigenvalues --    1.35339   1.40207   1.43723   1.44567   1.46960
 Alpha virt. eigenvalues --    1.50224   1.51436   1.53272   1.53313   1.56721
 Alpha virt. eigenvalues --    1.57556   1.58158   1.59135   1.59535   1.60503
 Alpha virt. eigenvalues --    1.62788   1.63566   1.64646   1.65501   1.66310
 Alpha virt. eigenvalues --    1.68459   1.69514   1.70179   1.74097   1.76275
 Alpha virt. eigenvalues --    1.77591   1.79306   1.79939   1.80993   1.83328
 Alpha virt. eigenvalues --    1.85851   1.86699   1.88358   1.92496   1.93009
 Alpha virt. eigenvalues --    1.95190   1.95973   1.96852   1.97705   1.99271
 Alpha virt. eigenvalues --    2.01030   2.02729   2.03988   2.05540   2.05931
 Alpha virt. eigenvalues --    2.10984   2.12954   2.16405   2.18378   2.20156
 Alpha virt. eigenvalues --    2.23439   2.27763   2.29554   2.37342   2.38831
 Alpha virt. eigenvalues --    2.42312   2.44278   2.46089   2.46490   2.50360
 Alpha virt. eigenvalues --    2.52383   2.59759   2.61933   2.63883   2.65019
 Alpha virt. eigenvalues --    2.66856   2.68865   2.69134   2.70662   2.70932
 Alpha virt. eigenvalues --    2.71654   2.72405   2.75545   2.76660   2.81123
 Alpha virt. eigenvalues --    2.82370   2.86200   2.87907   2.88795   2.91046
 Alpha virt. eigenvalues --    2.91827   2.93135   2.94242   2.94395   2.95789
 Alpha virt. eigenvalues --    2.98166   2.99243   3.00780   3.03380   3.06395
 Alpha virt. eigenvalues --    3.13746   3.16537   3.17514   3.22451   3.24950
 Alpha virt. eigenvalues --    3.26976   3.29205   3.39408   3.41268   3.42094
 Alpha virt. eigenvalues --    3.43243   3.43888   3.44733   3.53302   3.56211
 Alpha virt. eigenvalues --    3.58536   3.60980   3.63096   3.71139   3.73848
 Alpha virt. eigenvalues --    3.74817   3.85153   4.01516   4.06271   4.07298
 Alpha virt. eigenvalues --    4.08332   4.17515   4.19426   4.19748   4.23411
 Alpha virt. eigenvalues --    4.40544   4.49813   4.90935   5.08528   5.14221
 Alpha virt. eigenvalues --    5.17070   5.25994   5.29675   5.46847   5.65447
 Alpha virt. eigenvalues --    5.82135   6.03046  23.65191  23.84955  23.86800
 Alpha virt. eigenvalues --   23.93849  23.98257  24.01395  24.01940  24.13164
 Alpha virt. eigenvalues --   24.13699  24.23004  49.86088  49.98354  50.04637
          Condensed to atoms (all electrons):
               1          2          3          4          5          6
     1  O    8.143728  -0.068816  -0.056193  -1.047067   0.228356   0.716461
     2  O   -0.068816   7.872929   0.001979  -0.406381  -0.083832   0.044644
     3  O   -0.056193   0.001979   7.915284  -0.037609  -0.090619   0.006550
     4  C   -1.047067  -0.406381  -0.037609  41.854269  -4.667533 -22.046506
     5  C    0.228356  -0.083832  -0.090619  -4.667533   9.875880   1.296055
     6  C    0.716461   0.044644   0.006550 -22.046506   1.296055  34.611400
     7  C    0.417720   0.360267  -0.019238  -4.934384   1.058421   3.143198
     8  C   -0.158702   0.051870   0.519389   1.693623  -1.603609  -0.984814
     9  C    0.094089  -0.058082  -0.001415   0.013557   1.149329  -3.745581
    10  C   -0.243567   0.381722   0.025936  -6.380597  -0.909120  -1.733998
    11  C    0.008383  -0.002119  -0.000453   0.291918   0.252698  -1.525418
    12  C   -0.021890   0.056333   0.002493   0.212616  -0.233088  -3.205246
    13  C   -0.005023   0.027443   0.000885  -0.053942  -0.075051  -0.436322
    14  H   -0.052704  -0.028773   0.003107   1.270281  -0.047867  -0.706552
    15  H   -0.003828   0.005308  -0.013321  -0.010968   0.328559   0.038444
    16  H   -0.001861  -0.005277  -0.016167   0.333906   0.470219  -0.245523
    17  H    0.005002   0.003391   0.000509  -0.381515  -0.006265   0.258471
    18  H    0.011357   0.018175   0.001436  -0.376068   0.022469  -0.100747
    19  H    0.000112  -0.000430  -0.000019  -0.026480   0.006479   0.010360
    20  H   -0.000159  -0.002502  -0.000065  -0.046000   0.004507   0.125769
    21  H    0.000085   0.000678   0.000023  -0.039145  -0.001525   0.033904
               7          8          9         10         11         12
     1  O    0.417720  -0.158702   0.094089  -0.243567   0.008383  -0.021890
     2  O    0.360267   0.051870  -0.058082   0.381722  -0.002119   0.056333
     3  O   -0.019238   0.519389  -0.001415   0.025936  -0.000453   0.002493
     4  C   -4.934384   1.693623   0.013557  -6.380597   0.291918   0.212616
     5  C    1.058421  -1.603609   1.149329  -0.909120   0.252698  -0.233088
     6  C    3.143198  -0.984814  -3.745581  -1.733998  -1.525418  -3.205246
     7  C    8.372338  -0.357223   0.580308  -0.963443  -0.115471  -0.491128
     8  C   -0.357223   6.637844  -0.040385   0.099405  -0.060848   0.192085
     9  C    0.580308  -0.040385  24.881677 -17.039488   0.701744   2.795578
    10  C   -0.963443   0.099405 -17.039488  33.235659   0.103195  -2.827235
    11  C   -0.115471  -0.060848   0.701744   0.103195   6.798141  -0.696599
    12  C   -0.491128   0.192085   2.795578  -2.827235  -0.696599  10.046952
    13  C   -0.159274   0.021604  -2.822646   1.455892   0.369767   0.176207
    14  H   -0.072823  -0.005988   0.046356  -0.217013   0.054192  -0.059516
    15  H   -0.086756  -0.004414  -0.220669   0.273824  -0.012036   0.007534
    16  H   -0.036822  -0.070834   0.096736  -0.190512   0.020307  -0.019162
    17  H    0.018396  -0.007939   0.386153   0.140119  -0.143813   0.056913
    18  H   -0.093224  -0.001016  -0.186131   0.875273   0.018444  -0.010632
    19  H    0.010710  -0.000768   0.013733  -0.011283   0.386874  -0.006286
    20  H    0.023925  -0.002256   0.140154  -0.129434  -0.004425   0.329049
    21  H   -0.003627   0.000181  -0.078407   0.040638  -0.043655  -0.080260
              13         14         15         16         17         18
     1  O   -0.005023  -0.052704  -0.003828  -0.001861   0.005002   0.011357
     2  O    0.027443  -0.028773   0.005308  -0.005277   0.003391   0.018175
     3  O    0.000885   0.003107  -0.013321  -0.016167   0.000509   0.001436
     4  C   -0.053942   1.270281  -0.010968   0.333906  -0.381515  -0.376068
     5  C   -0.075051  -0.047867   0.328559   0.470219  -0.006265   0.022469
     6  C   -0.436322  -0.706552   0.038444  -0.245523   0.258471  -0.100747
     7  C   -0.159274  -0.072823  -0.086756  -0.036822   0.018396  -0.093224
     8  C    0.021604  -0.005988  -0.004414  -0.070834  -0.007939  -0.001016
     9  C   -2.822646   0.046356  -0.220669   0.096736   0.386153  -0.186131
    10  C    1.455892  -0.217013   0.273824  -0.190512   0.140119   0.875273
    11  C    0.369767   0.054192  -0.012036   0.020307  -0.143813   0.018444
    12  C    0.176207  -0.059516   0.007534  -0.019162   0.056913  -0.010632
    13  C    7.658674  -0.003846   0.016295  -0.011879  -0.012193   0.044651
    14  H   -0.003846   0.476111  -0.023929   0.020179  -0.034418  -0.027495
    15  H    0.016295  -0.023929   0.400985  -0.015826   0.004536   0.006621
    16  H   -0.011879   0.020179  -0.015826   0.388934  -0.006439  -0.013909
    17  H   -0.012193  -0.034418   0.004536  -0.006439   0.456977   0.008703
    18  H    0.044651  -0.027495   0.006621  -0.013909   0.008703   0.500126
    19  H   -0.078735   0.001542  -0.001119   0.000208  -0.009431  -0.000768
    20  H   -0.138508   0.000484  -0.000723   0.000345   0.000903  -0.017666
    21  H    0.494164  -0.001272   0.000460  -0.000921   0.002124   0.005358
              19         20         21
     1  O    0.000112  -0.000159   0.000085
     2  O   -0.000430  -0.002502   0.000678
     3  O   -0.000019  -0.000065   0.000023
     4  C   -0.026480  -0.046000  -0.039145
     5  C    0.006479   0.004507  -0.001525
     6  C    0.010360   0.125769   0.033904
     7  C    0.010710   0.023925  -0.003627
     8  C   -0.000768  -0.002256   0.000181
     9  C    0.013733   0.140154  -0.078407
    10  C   -0.011283  -0.129434   0.040638
    11  C    0.386874  -0.004425  -0.043655
    12  C   -0.006286   0.329049  -0.080260
    13  C   -0.078735  -0.138508   0.494164
    14  H    0.001542   0.000484  -0.001272
    15  H   -0.001119  -0.000723   0.000460
    16  H    0.000208   0.000345  -0.000921
    17  H   -0.009431   0.000903   0.002124
    18  H   -0.000768  -0.017666   0.005358
    19  H    0.413765   0.002059  -0.010393
    20  H    0.002059   0.419407  -0.013034
    21  H   -0.010393  -0.013034   0.425937
 Mulliken charges:
               1
     1  O    0.034519
     2  O   -0.168528
     3  O   -0.242494
     4  C    0.784023
     5  C   -0.974463
     6  C    0.445453
     7  C   -0.651870
     8  C    0.082797
     9  C   -0.706612
    10  C    0.014027
    11  C   -0.400825
    12  C   -0.224717
    13  C   -0.468161
    14  H    0.409945
    15  H    0.311023
    16  H    0.304299
    17  H    0.259814
    18  H    0.315044
    19  H    0.299870
    20  H    0.308169
    21  H    0.268686
 Sum of Mulliken charges =  -0.00000
 Mulliken charges with hydrogens summed into heavy atoms:
               1
     1  O    0.034519
     2  O   -0.168528
     3  O   -0.242494
     4  C    1.193968
     5  C   -0.359141
     6  C    0.445453
     7  C   -0.651870
     8  C    0.082797
     9  C   -0.446797
    10  C    0.329071
    11  C   -0.100955
    12  C    0.083452
    13  C   -0.199475
 Electronic spatial extent (au):  <R**2>=           2470.5740
 Charge=             -0.0000 electrons
 Dipole moment (field-independent basis, Debye):
    X=             -3.8026    Y=             -2.8529    Z=             -0.3963  Tot=              4.7703
 Quadrupole moment (field-independent basis, Debye-Ang):
   XX=            -85.6592   YY=            -80.7088   ZZ=            -72.4202
   XY=              0.7686   XZ=             -5.5298   YZ=              8.4464
 Traceless Quadrupole moment (field-independent basis, Debye-Ang):
   XX=             -6.0631   YY=             -1.1128   ZZ=              7.1759
   XY=              0.7686   XZ=             -5.5298   YZ=              8.4464
 Octapole moment (field-independent basis, Debye-Ang**2):
  XXX=            -82.4162  YYY=            -13.2826  ZZZ=             -2.2761  XYY=             -2.7561
  XXY=             10.1804  XXZ=            -13.5044  XZZ=              7.9926  YZZ=              0.7067
  YYZ=              3.3313  XYZ=             -2.9446
 Hexadecapole moment (field-independent basis, Debye-Ang**3):
 XXXX=          -2567.0587 YYYY=           -577.8814 ZZZZ=           -302.0027 XXXY=             86.2267
 XXXZ=            -89.9300 YYYX=            -13.6934 YYYZ=             23.4231 ZZZX=             -0.6173
 ZZZY=              7.0730 XXYY=           -523.3522 XXZZ=           -458.8785 YYZZ=           -135.6167
 XXYZ=             50.2938 YYXZ=              2.1593 ZZXY=             -2.8546
 N-N= 7.482610675674D+02 E-N=-2.922637671577D+03  KE= 6.089223243957D+02
 R6APFD:  NTU= -4 IXU= 1 FactS= 1.050
 Calling FoFJK, ICntrl=      2127 FMM=F ISym2X=0 I1Cent= 0 IOpClX= 0 NMat=1 NMatS=1 NMatT=0.
 ***** Axes restored to original set *****
 -------------------------------------------------------------------
 Center     Atomic                   Forces (Hartrees/Bohr)
 Number     Number              X              Y              Z
 -------------------------------------------------------------------
      1        8           0.011612465    0.012006735    0.002750225
      2        8           0.029211397   -0.051290673    0.014818879
      3        8          -0.040566397    0.036440931   -0.019403386
      4        6          -0.009745389   -0.006776797    0.005837221
      5        6           0.000341105   -0.007942006   -0.013164757
      6        6          -0.009629956    0.006523413   -0.005842302
      7        6          -0.023553764    0.057542473   -0.020390455
      8        6           0.049388992   -0.041188638    0.026423900
      9        6          -0.005310673    0.002773006    0.004660816
     10        6          -0.010824787   -0.004171672    0.005688028
     11        6           0.002500289    0.001310789    0.003141336
     12        6           0.001458673   -0.004910277   -0.003324700
     13        6           0.002139622    0.000041342   -0.001325965
     14        1          -0.000636907    0.000147863   -0.001512807
     15        1           0.002205926   -0.003159939    0.006290865
     16        1          -0.002144733    0.000080192    0.000042631
     17        1           0.002467270   -0.000043571   -0.002121309
     18        1           0.003756557    0.001978562   -0.002748215
     19        1          -0.000976472   -0.000906149   -0.001003712
     20        1          -0.000025393    0.001263901    0.001023514
     21        1          -0.001667824    0.000280516    0.000160192
 -------------------------------------------------------------------
 Cartesian Forces:  Max     0.057542473 RMS     0.016632875

 GradGradGradGradGradGradGradGradGradGradGradGradGradGradGradGradGradGrad
 Berny optimization.
 FormGI is forming the generalized inverse of G from B-inverse, IUseBI=4.
 Internal  Forces:  Max     0.059887899 RMS     0.008881374
 Search for a local minimum.
 Step number   1 out of a maximum of  124
 All quantities printed in internal units (Hartrees-Bohrs-Radians)
 Mixed Optimization -- RFO/linear search
 Second derivative matrix not updated -- first step.
 ITU=  0
     Eigenvalues ---    0.00748   0.00877   0.01088   0.01189   0.01576
     Eigenvalues ---    0.01646   0.02156   0.02156   0.02156   0.02157
     Eigenvalues ---    0.02157   0.02158   0.02158   0.02159   0.04540
     Eigenvalues ---    0.04852   0.05067   0.05831   0.06886   0.08369
     Eigenvalues ---    0.09138   0.13762   0.15992   0.16000   0.16000
     Eigenvalues ---    0.16000   0.16000   0.21035   0.22000   0.22000
     Eigenvalues ---    0.23486   0.24262   0.24966   0.24972   0.25000
     Eigenvalues ---    0.29813   0.31004   0.32571   0.33276   0.33948
     Eigenvalues ---    0.34250   0.34370   0.35199   0.35248   0.35269
     Eigenvalues ---    0.35271   0.35272   0.42127   0.42336   0.46461
     Eigenvalues ---    0.46481   0.46486   0.46503   0.49143   0.50860
     Eigenvalues ---    0.94807   0.94824
 RFO step:  Lambda=-1.68577434D-02 EMin= 7.47915296D-03
 Linear search not attempted -- first point.
 Iteration  1 RMS(Cart)=  0.05223114 RMS(Int)=  0.00121378
 Iteration  2 RMS(Cart)=  0.00158602 RMS(Int)=  0.00043539
 Iteration  3 RMS(Cart)=  0.00000185 RMS(Int)=  0.00043539
 Iteration  4 RMS(Cart)=  0.00000000 RMS(Int)=  0.00043539
 Variable       Old X    -DE/DX   Delta X   Delta X   Delta X     New X
                                 (Linear)    (Quad)   (Total)
    R1        2.57623   0.00529   0.00000   0.01000   0.00986   2.58609
    R2        2.57275   0.00524   0.00000   0.00958   0.00930   2.58206
    R3        2.30793  -0.05989   0.00000  -0.06206  -0.06206   2.24587
    R4        2.30786  -0.05630   0.00000  -0.05834  -0.05834   2.24952
    R5        2.86509   0.01453   0.00000   0.04419   0.04449   2.90958
    R6        2.81870   0.01513   0.00000   0.04327   0.04327   2.86197
    R7        2.83291   0.01578   0.00000   0.04678   0.04693   2.87984
    R8        2.07418   0.00141   0.00000   0.00395   0.00395   2.07813
    R9        2.82191   0.01400   0.00000   0.04008   0.04001   2.86192
   R10        2.06710  -0.00038   0.00000  -0.00106  -0.00106   2.06604
   R11        2.06910   0.00088   0.00000   0.00244   0.00244   2.07154
   R12        2.63584  -0.00117   0.00000  -0.00239  -0.00234   2.63350
   R13        2.63569   0.00054   0.00000   0.00122   0.00127   2.63696
   R14        2.63618  -0.00169   0.00000  -0.00357  -0.00358   2.63260
   R15        2.05353   0.00230   0.00000   0.00624   0.00624   2.05977
   R16        2.63610  -0.00208   0.00000  -0.00427  -0.00426   2.63184
   R17        2.05274   0.00210   0.00000   0.00568   0.00568   2.05843
   R18        2.63568  -0.00274   0.00000  -0.00579  -0.00584   2.62983
   R19        2.05237   0.00165   0.00000   0.00446   0.00446   2.05683
   R20        2.63593  -0.00182   0.00000  -0.00383  -0.00387   2.63206
   R21        2.05235   0.00152   0.00000   0.00412   0.00412   2.05647
   R22        2.05241   0.00165   0.00000   0.00448   0.00448   2.05688
    A1        1.94015   0.00035   0.00000   0.00423   0.00375   1.94390
    A2        1.96048   0.00494   0.00000   0.03721   0.03679   1.99727
    A3        1.80155  -0.00580   0.00000  -0.01600  -0.01702   1.78454
    A4        1.92908  -0.00006   0.00000  -0.01152  -0.01167   1.91742
    A5        1.96587   0.00548   0.00000   0.04024   0.03970   2.00557
    A6        1.94020  -0.00368   0.00000  -0.02587  -0.02531   1.91489
    A7        1.85983  -0.00120   0.00000  -0.02609  -0.02594   1.83390
    A8        1.79688   0.00212   0.00000   0.01467   0.01412   1.81099
    A9        1.93815   0.00546   0.00000   0.05849   0.05837   1.99651
   A10        1.98315  -0.00360   0.00000  -0.03565  -0.03537   1.94777
   A11        1.92733  -0.00183   0.00000  -0.00295  -0.00453   1.92280
   A12        1.89668  -0.00042   0.00000  -0.01106  -0.01093   1.88575
   A13        1.91791  -0.00167   0.00000  -0.02226  -0.02184   1.89607
   A14        2.09435  -0.00244   0.00000  -0.00913  -0.00950   2.08485
   A15        2.09438   0.00625   0.00000   0.02344   0.02304   2.11742
   A16        2.09446  -0.00380   0.00000  -0.01429  -0.01441   2.08004
   A17        2.17288  -0.01482   0.00000  -0.05640  -0.05666   2.11623
   A18        1.90249   0.00474   0.00000   0.02068   0.02066   1.92315
   A19        2.20685   0.01012   0.00000   0.03711   0.03688   2.24373
   A20        2.17845  -0.01554   0.00000  -0.05845  -0.05863   2.11983
   A21        1.91374   0.00020   0.00000   0.00308   0.00261   1.91635
   A22        2.18994   0.01538   0.00000   0.05722   0.05706   2.24699
   A23        2.09437   0.00260   0.00000   0.01061   0.01070   2.10507
   A24        2.10646  -0.00346   0.00000  -0.01753  -0.01758   2.08888
   A25        2.08235   0.00087   0.00000   0.00693   0.00688   2.08923
   A26        2.09443   0.00122   0.00000   0.00525   0.00529   2.09972
   A27        2.13169  -0.00438   0.00000  -0.02371  -0.02386   2.10783
   A28        2.05662   0.00319   0.00000   0.01913   0.01898   2.07560
   A29        2.09430   0.00010   0.00000  -0.00019  -0.00021   2.09410
   A30        2.09447  -0.00030   0.00000  -0.00128  -0.00129   2.09318
   A31        2.09442   0.00019   0.00000   0.00148   0.00148   2.09589
   A32        2.09425   0.00107   0.00000   0.00426   0.00426   2.09851
   A33        2.09495  -0.00101   0.00000  -0.00478  -0.00482   2.09013
   A34        2.09396  -0.00006   0.00000   0.00062   0.00057   2.09453
   A35        2.09456  -0.00119   0.00000  -0.00562  -0.00566   2.08890
   A36        2.09436   0.00049   0.00000   0.00223   0.00224   2.09660
   A37        2.09426   0.00070   0.00000   0.00340   0.00342   2.09768
    D1        3.05215  -0.00082   0.00000  -0.01653  -0.01489   3.03727
    D2       -0.13413   0.00060   0.00000   0.01695   0.01740  -0.11673
    D3        3.08859   0.00010   0.00000  -0.01749  -0.01547   3.07312
    D4       -0.10018   0.00166   0.00000   0.02567   0.02563  -0.07455
    D5       -2.45972  -0.00081   0.00000   0.00878   0.00895  -2.45077
    D6        1.76082  -0.00240   0.00000  -0.02331  -0.02375   1.73707
    D7       -0.41185  -0.00176   0.00000  -0.01275  -0.01254  -0.42439
    D8       -0.33751   0.00477   0.00000   0.06684   0.06653  -0.27098
    D9       -2.40016   0.00317   0.00000   0.03475   0.03384  -2.36632
   D10        1.71035   0.00382   0.00000   0.04530   0.04504   1.75540
   D11        1.64547   0.00040   0.00000   0.02387   0.02407   1.66955
   D12       -0.41718  -0.00120   0.00000  -0.00822  -0.00862  -0.42580
   D13       -2.58985  -0.00055   0.00000   0.00234   0.00258  -2.58726
   D14       -1.63999  -0.00043   0.00000   0.00577   0.00658  -1.63341
   D15        1.50191  -0.00193   0.00000  -0.03955  -0.03910   1.46281
   D16        2.61775   0.00002   0.00000  -0.02527  -0.02568   2.59207
   D17       -0.52353  -0.00149   0.00000  -0.07059  -0.07136  -0.59490
   D18        0.53187   0.00039   0.00000  -0.00121  -0.00106   0.53080
   D19       -2.60941  -0.00111   0.00000  -0.04653  -0.04674  -2.65616
   D20        0.30226  -0.00334   0.00000  -0.05399  -0.05411   0.24815
   D21       -2.88512  -0.00270   0.00000  -0.02272  -0.02188  -2.90700
   D22        2.42082   0.00186   0.00000   0.00209   0.00162   2.42244
   D23       -0.76656   0.00250   0.00000   0.03336   0.03385  -0.73271
   D24       -1.73046  -0.00017   0.00000  -0.02318  -0.02396  -1.75442
   D25        1.36534   0.00047   0.00000   0.00809   0.00827   1.37361
   D26        0.28258  -0.00301   0.00000  -0.05539  -0.05591   0.22667
   D27       -2.90657  -0.00248   0.00000  -0.01576  -0.01500  -2.92157
   D28        2.35281   0.00365   0.00000   0.01938   0.01856   2.37137
   D29       -0.83635   0.00419   0.00000   0.05901   0.05947  -0.77687
   D30       -1.82550   0.00021   0.00000  -0.01680  -0.01746  -1.84295
   D31        1.26853   0.00075   0.00000   0.02283   0.02345   1.29199
   D32       -3.14112  -0.00154   0.00000  -0.04377  -0.04334   3.09873
   D33        0.00229  -0.00155   0.00000  -0.04394  -0.04351  -0.04122
   D34        0.00016  -0.00004   0.00000   0.00156   0.00136   0.00153
   D35       -3.13961  -0.00004   0.00000   0.00139   0.00119  -3.13842
   D36        3.14130   0.00151   0.00000   0.04285   0.04319  -3.09870
   D37       -0.03301   0.00251   0.00000   0.06781   0.06776   0.03475
   D38        0.00002   0.00001   0.00000  -0.00247  -0.00237  -0.00236
   D39        3.10890   0.00101   0.00000   0.02249   0.02220   3.13110
   D40       -0.00029   0.00016   0.00000   0.00331   0.00346   0.00317
   D41       -3.14069  -0.00012   0.00000  -0.00380  -0.00373   3.13876
   D42        3.13951   0.00016   0.00000   0.00345   0.00360  -3.14007
   D43       -0.00089  -0.00012   0.00000  -0.00366  -0.00359  -0.00448
   D44       -0.00007  -0.00010   0.00000  -0.00148  -0.00143  -0.00150
   D45        3.13403   0.00046   0.00000   0.01290   0.01293  -3.13622
   D46       -3.11034  -0.00092   0.00000  -0.02460  -0.02477  -3.13510
   D47        0.02376  -0.00037   0.00000  -0.01022  -0.01041   0.01335
   D48        0.00024  -0.00026   0.00000  -0.00727  -0.00725  -0.00701
   D49       -3.13955  -0.00039   0.00000  -0.01017  -0.01024   3.13340
   D50        3.14064   0.00002   0.00000  -0.00016  -0.00005   3.14059
   D51        0.00086  -0.00011   0.00000  -0.00307  -0.00304  -0.00219
   D52       -0.00006   0.00023   0.00000   0.00635   0.00625   0.00619
   D53        3.13973   0.00036   0.00000   0.00926   0.00924  -3.13421
   D54       -3.13416  -0.00032   0.00000  -0.00800  -0.00812   3.14090
   D55        0.00562  -0.00019   0.00000  -0.00510  -0.00513   0.00049
         Item               Value     Threshold  Converged?
 Maximum Force            0.059888     0.000450     NO 
 RMS     Force            0.008881     0.000300     NO 
 Maximum Displacement     0.291501     0.001800     NO 
 RMS     Displacement     0.051898     0.001200     NO 
 Predicted change in Energy=-9.149106D-03
 GradGradGradGradGradGradGradGradGradGradGradGradGradGradGradGradGradGrad

                          Input orientation:                          
 ---------------------------------------------------------------------
 Center     Atomic      Atomic             Coordinates (Angstroms)
 Number     Number       Type             X           Y           Z
 ---------------------------------------------------------------------
      1          8           0        2.620440    0.736287    0.007110
      2          8           0        1.058356    2.161435   -0.701124
      3          8           0        3.755876   -1.063744    0.679641
      4          6           0        0.572170   -0.237763   -0.693229
      5          6           0        1.394951   -1.277090    0.090004
      6          6           0       -0.881775   -0.148388   -0.278827
      7          6           0        1.379010    1.037940   -0.483447
      8          6           0        2.728743   -0.592766    0.305182
      9          6           0       -1.836704   -0.897843   -0.963306
     10          6           0       -1.279241    0.628666    0.809938
     11          6           0       -3.172989   -0.873284   -0.570243
     12          6           0       -2.614777    0.655460    1.203974
     13          6           0       -3.565104   -0.092278    0.512790
     14          1           0        0.638626   -0.444167   -1.771335
     15          1           0        1.538390   -2.226461   -0.432897
     16          1           0        0.955680   -1.481622    1.073308
     17          1           0       -1.534838   -1.510040   -1.813101
     18          1           0       -0.552986    1.216850    1.369498
     19          1           0       -3.910025   -1.460905   -1.114442
     20          1           0       -2.915711    1.268509    2.051249
     21          1           0       -4.609793   -0.065397    0.817157
 ---------------------------------------------------------------------
                    Distance matrix (angstroms):
                    1          2          3          4          5
     1  O    0.000000
     2  O    2.229966   0.000000
     3  O    2.231956   4.425484   0.000000
     4  C    2.373743   2.447977   3.564126   0.000000
     5  C    2.358470   3.544381   2.442775   1.539683   0.000000
     6  C    3.623523   3.045936   4.823312   1.514488   2.567779
     7  C    1.368498   1.188463   3.379251   1.523948   2.385050
     8  C    1.366367   3.374680   1.190396   2.402844   1.514464
     9  C    4.845432   4.220106   5.831273   2.512234   3.420071
    10  C    3.982916   3.177585   5.313532   2.537308   3.361773
    11  C    6.040519   5.208736   7.043270   3.800688   4.633041
    12  C    5.370895   4.403324   6.619351   3.814952   4.588421
    13  C    6.261244   5.284807   7.387037   4.311923   5.117096
    14  H    2.912718   2.847927   4.013528   1.099697   2.174942
    15  H    3.184700   4.422218   2.739871   2.226269   1.093300
    16  H    2.971081   4.053519   2.858442   2.194292   1.096212
    17  H    5.062163   4.630430   5.865543   2.704124   3.501391
    18  H    3.486785   2.788572   4.923749   2.763461   3.413401
    19  H    6.980867   6.162548   7.883052   4.665144   5.443092
    20  H    5.925431   4.915901   7.199360   4.686825   5.376651
    21  H    7.319504   6.276294   8.426150   5.400344   6.168785
                    6          7          8          9         10
     6  C    0.000000
     7  C    2.561326   0.000000
     8  C    3.684342   2.258963   0.000000
     9  C    1.393587   3.783958   4.748204   0.000000
    10  C    1.395422   2.984401   4.220262   2.405284   0.000000
    11  C    2.420756   4.937713   5.972897   1.393112   2.783351
    12  C    2.418298   4.352473   5.560495   2.777634   1.392709
    13  C    2.798224   5.168573   6.317127   2.411464   2.415208
    14  H    2.150973   2.098444   2.950016   2.643102   3.390008
    15  H    3.193637   3.268680   2.151897   3.665762   4.199456
    16  H    2.642352   2.991803   2.126931   3.505139   3.085053
    17  H    2.152809   4.092762   4.848365   1.089982   3.394073
    18  H    2.165399   2.682913   3.895795   3.400269   1.089272
    19  H    3.404593   5.883560   6.844139   2.153728   3.871767
    20  H    3.402021   4.992242   6.194591   3.865861   2.151346
    21  H    3.886668   6.226932   7.375252   3.398976   3.402110
                   11         12         13         14         15
    11  C    0.000000
    12  C    2.407594   0.000000
    13  C    1.391649   1.392828   0.000000
    14  H    4.019350   4.543817   4.797124   0.000000
    15  H    4.903778   5.313531   5.612014   2.403656   0.000000
    16  H    4.485225   4.163215   4.762556   3.044476   1.778479
    17  H    2.152601   3.867610   3.397322   2.421111   3.444263
    18  H    3.872425   2.143254   3.394204   3.747499   4.413487
    19  H    1.088427   3.395839   2.154065   4.706962   5.543988
    20  H    3.394951   1.088239   2.154137   5.493517   6.182622
    21  H    2.154522   2.156235   1.088456   5.864270   6.635735
                   16         17         18         19         20
    16  H    0.000000
    17  H    3.812459   0.000000
    18  H    3.105729   4.304521   0.000000
    19  H    5.334957   2.476298   4.960851   0.000000
    20  H    4.848429   4.955840   2.459660   4.296506   0.000000
    21  H    5.748547   4.296580   4.290329   2.483585   2.484391
                   21
    21  H    0.000000
 Stoichiometry    C10H8O3
 Framework group  C1[X(C10H8O3)]
 Deg. of freedom    57
 Full point group                 C1      NOp   1
 Largest Abelian subgroup         C1      NOp   1
 Largest concise Abelian subgroup C1      NOp   1
                         Standard orientation:                         
 ---------------------------------------------------------------------
 Center     Atomic      Atomic             Coordinates (Angstroms)
 Number     Number       Type             X           Y           Z
 ---------------------------------------------------------------------
      1          8           0        2.565174    0.731911   -0.016735
      2          8           0        1.015688    2.117874   -0.823549
      3          8           0        3.686289   -1.028348    0.774602
      4          6           0        0.516723   -0.273803   -0.670221
      5          6           0        1.328459   -1.266437    0.182062
      6          6           0       -0.939597   -0.151775   -0.272840
      7          6           0        1.328836    1.008531   -0.534168
      8          6           0        2.664324   -0.576559    0.364094
      9          6           0       -1.893669   -0.937664   -0.916431
     10          6           0       -1.340558    0.693364    0.762618
     11          6           0       -3.232529   -0.882225   -0.535460
     12          6           0       -2.678664    0.751091    1.144427
     13          6           0       -3.628077   -0.033524    0.494071
     14          1           0        0.589643   -0.547129   -1.732910
     15          1           0        1.470517   -2.247155   -0.279798
     16          1           0        0.881221   -1.407326    1.172925
     17          1           0       -1.589105   -1.602951   -1.724326
     18          1           0       -0.615133    1.311646    1.289874
     19          1           0       -3.968840   -1.498938   -1.047499
     20          1           0       -2.982275    1.417066    1.949762
     21          1           0       -4.674718    0.017302    0.788514
 ---------------------------------------------------------------------
 Rotational constants (GHZ):           1.8845533           0.4803132           0.4395007
 Standard basis: 6-311++G(d,p) (5D, 7F)
 There are   355 symmetry adapted cartesian basis functions of A   symmetry.
 There are   342 symmetry adapted basis functions of A   symmetry.
   342 basis functions,   540 primitive gaussians,   355 cartesian basis functions
    46 alpha electrons       46 beta electrons
       nuclear repulsion energy       743.5288765792 Hartrees.
 NAtoms=   21 NActive=   21 NUniq=   21 SFac= 1.00D+00 NAtFMM=   60 NAOKFM=F Big=F
 Integral buffers will be    131072 words long.
 Raffenetti 2 integral format.
 Two-electron integral symmetry is turned on.
 R6APFD:  NTU= -4 IXU= 1 FactS= 1.050
 Nuclear repulsion after empirical dispersion term =      743.5130036303 Hartrees.
 One-electron integrals computed using PRISM.
 NBasis=   342 RedAO= T EigKep=  1.70D-06  NBF=   342
 NBsUse=   341 1.00D-06 EigRej=  6.88D-07 NBFU=   341
 Initial guess from the checkpoint file:  "PSUC0151.chk"
 B after Tr=    -0.000000   -0.000000   -0.000000
         Rot=    0.999931   -0.009803    0.002976    0.005672 Ang=  -1.34 deg.
 ExpMin= 3.60D-02 ExpMax= 8.59D+03 ExpMxC= 1.30D+03 IAcc=3 IRadAn=         5 AccDes= 0.00D+00
 Harris functional with IExCor= 1009 and IRadAn=       5 diagonalized for initial guess.
 HarFok:  IExCor= 1009 AccDes= 0.00D+00 IRadAn=         5 IDoV= 1 UseB2=F ITyADJ=14
 ICtDFT=  3500011 ScaDFX=  1.000000  1.000000  1.000000  1.000000
 FoFCou: FMM=F IPFlag=           0 FMFlag=      100000 FMFlg1=           0
         NFxFlg=           0 DoJE=T BraDBF=F KetDBF=T FulRan=T
         wScrn=  0.000000 ICntrl=       500 IOpCl=  0 I1Cent=   200000004 NGrid=           0
         NMat0=    1 NMatS0=      1 NMatT0=    0 NMatD0=    1 NMtDS0=    0 NMtDT0=    0
 Petite list used in FoFCou.
 Requested convergence on RMS density matrix=1.00D-08 within  32 cycles.
 Requested convergence on MAX density matrix=1.00D-06.
 Requested convergence on             energy=1.00D-06.
 No special actions if energy rises.
 SCF Done:  E(RM08HX) =  -611.554925830     A.U. after   15 cycles
            NFock= 15  Conv=0.53D-08     -V/T= 2.0042
 QCSCF skips out because SCF is already converged.
 R6APFD:  NTU= -4 IXU= 1 FactS= 1.050
 Calling FoFJK, ICntrl=      2127 FMM=F ISym2X=0 I1Cent= 0 IOpClX= 0 NMat=1 NMatS=1 NMatT=0.
 ***** Axes restored to original set *****
 -------------------------------------------------------------------
 Center     Atomic                   Forces (Hartrees/Bohr)
 Number     Number              X              Y              Z
 -------------------------------------------------------------------
      1        8           0.000241997    0.001686430   -0.000411753
      2        8           0.000012372   -0.006593175    0.000387857
      3        8          -0.007781197    0.002649597   -0.001935063
      4        6          -0.000268458   -0.004982184    0.004536852
      5        6          -0.001171855    0.002525316   -0.004115964
      6        6           0.002942167    0.002900432   -0.001787597
      7        6          -0.007964333    0.015229945   -0.001703274
      8        6           0.013470249   -0.011527385    0.004449055
      9        6          -0.000784840   -0.000564649   -0.000772019
     10        6          -0.000753910   -0.001107140    0.002527992
     11        6           0.000546722   -0.000151949   -0.000188572
     12        6           0.000566044   -0.000255873   -0.000536779
     13        6           0.000046995   -0.000032923    0.000152750
     14        1          -0.000762446   -0.000479286   -0.000416496
     15        1           0.000202502   -0.000407269    0.001578477
     16        1          -0.001009327   -0.000321110    0.000436552
     17        1           0.000395410    0.000302555   -0.000469765
     18        1           0.001555329    0.001019922   -0.001699676
     19        1           0.000203228   -0.000094403   -0.000213197
     20        1           0.000242653    0.000169475    0.000116102
     21        1           0.000070698    0.000033673    0.000064518
 -------------------------------------------------------------------
 Cartesian Forces:  Max     0.015229945 RMS     0.003702500

 GradGradGradGradGradGradGradGradGradGradGradGradGradGradGradGradGradGrad
 Berny optimization.
 Using GEDIIS/GDIIS optimizer.
 FormGI is forming the generalized inverse of G from B-inverse, IUseBI=4.
 Internal  Forces:  Max     0.008370387 RMS     0.001801321
 Search for a local minimum.
 Step number   2 out of a maximum of  124
 All quantities printed in internal units (Hartrees-Bohrs-Radians)
 Mixed Optimization -- RFO/linear search
 Update second derivatives using D2CorX and points    1    2
 DE= -8.64D-03 DEPred=-9.15D-03 R= 9.45D-01
 TightC=F SS=  1.41D+00  RLast= 2.91D-01 DXNew= 5.0454D-01 8.7398D-01
 Trust test= 9.45D-01 RLast= 2.91D-01 DXMaxT set to 5.05D-01
 ITU=  1  0
 Use linear search instead of GDIIS.
     Eigenvalues ---    0.00733   0.00884   0.01049   0.01157   0.01580
     Eigenvalues ---    0.01660   0.02147   0.02156   0.02156   0.02156
     Eigenvalues ---    0.02157   0.02157   0.02158   0.02161   0.04390
     Eigenvalues ---    0.04725   0.04993   0.05780   0.06983   0.08536
     Eigenvalues ---    0.09187   0.14031   0.15815   0.16000   0.16000
     Eigenvalues ---    0.16000   0.16005   0.21623   0.22000   0.22007
     Eigenvalues ---    0.23529   0.23881   0.24951   0.24990   0.27121
     Eigenvalues ---    0.30305   0.31045   0.32306   0.33942   0.34231
     Eigenvalues ---    0.34367   0.35172   0.35209   0.35237   0.35270
     Eigenvalues ---    0.35272   0.35537   0.42083   0.42453   0.46392
     Eigenvalues ---    0.46481   0.46499   0.46512   0.48614   0.50920
     Eigenvalues ---    0.84775   0.94899
 RFO step:  Lambda=-1.31018139D-03 EMin= 7.33498642D-03
 Quartic linear search produced a step of  0.02088.
 Iteration  1 RMS(Cart)=  0.01906452 RMS(Int)=  0.00019961
 Iteration  2 RMS(Cart)=  0.00023523 RMS(Int)=  0.00007716
 Iteration  3 RMS(Cart)=  0.00000004 RMS(Int)=  0.00007716
 Variable       Old X    -DE/DX   Delta X   Delta X   Delta X     New X
                                 (Linear)    (Quad)   (Total)
    R1        2.58609   0.00551   0.00021   0.01234   0.01252   2.59861
    R2        2.58206   0.00751   0.00019   0.01631   0.01653   2.59858
    R3        2.24587  -0.00631  -0.00130  -0.01026  -0.01155   2.23432
    R4        2.24952  -0.00837  -0.00122  -0.01226  -0.01348   2.23604
    R5        2.90958  -0.00076   0.00093  -0.00272  -0.00181   2.90777
    R6        2.86197  -0.00547   0.00090  -0.01432  -0.01342   2.84855
    R7        2.87984   0.00082   0.00098   0.00444   0.00539   2.88523
    R8        2.07813   0.00045   0.00008   0.00157   0.00165   2.07978
    R9        2.86192   0.00073   0.00084   0.00427   0.00515   2.86708
   R10        2.06604  -0.00037  -0.00002  -0.00116  -0.00119   2.06485
   R11        2.07154   0.00086   0.00005   0.00268   0.00273   2.07427
   R12        2.63350  -0.00001  -0.00005  -0.00018  -0.00022   2.63328
   R13        2.63696  -0.00102   0.00003  -0.00227  -0.00222   2.63475
   R14        2.63260  -0.00076  -0.00007  -0.00179  -0.00189   2.63071
   R15        2.05977   0.00031   0.00013   0.00123   0.00136   2.06112
   R16        2.63184  -0.00103  -0.00009  -0.00256  -0.00263   2.62921
   R17        2.05843   0.00071   0.00012   0.00238   0.00249   2.06092
   R18        2.62983   0.00092  -0.00012   0.00180   0.00165   2.63149
   R19        2.05683   0.00002   0.00009   0.00030   0.00040   2.05722
   R20        2.63206   0.00065  -0.00008   0.00125   0.00116   2.63322
   R21        2.05647   0.00012   0.00009   0.00057   0.00066   2.05713
   R22        2.05688  -0.00005   0.00009   0.00011   0.00020   2.05708
    A1        1.94390   0.00238   0.00008   0.01314   0.01327   1.95718
    A2        1.99727   0.00044   0.00077   0.00728   0.00814   2.00541
    A3        1.78454   0.00326  -0.00036   0.00873   0.00834   1.79287
    A4        1.91742  -0.00074  -0.00024   0.00343   0.00311   1.92053
    A5        2.00557  -0.00386   0.00083  -0.02350  -0.02275   1.98282
    A6        1.91489   0.00050  -0.00053  -0.00354  -0.00410   1.91079
    A7        1.83390   0.00053  -0.00054   0.00888   0.00831   1.84221
    A8        1.81099   0.00184   0.00029   0.00399   0.00426   1.81525
    A9        1.99651   0.00059   0.00122   0.01573   0.01698   2.01349
   A10        1.94777  -0.00104  -0.00074  -0.01114  -0.01190   1.93588
   A11        1.92280  -0.00094  -0.00009  -0.00158  -0.00191   1.92090
   A12        1.88575  -0.00019  -0.00023   0.00231   0.00215   1.88790
   A13        1.89607  -0.00024  -0.00046  -0.00912  -0.00952   1.88656
   A14        2.08485   0.00066  -0.00020   0.00208   0.00181   2.08666
   A15        2.11742  -0.00246   0.00048  -0.00885  -0.00842   2.10900
   A16        2.08004   0.00179  -0.00030   0.00625   0.00596   2.08600
   A17        2.11623   0.00423  -0.00118   0.01457   0.01337   2.12959
   A18        1.92315  -0.00409   0.00043  -0.01660  -0.01621   1.90694
   A19        2.24373  -0.00015   0.00077   0.00188   0.00263   2.24636
   A20        2.11983   0.00277  -0.00122   0.00792   0.00641   2.12623
   A21        1.91635  -0.00356   0.00005  -0.01428  -0.01434   1.90201
   A22        2.24699   0.00078   0.00119   0.00613   0.00703   2.25402
   A23        2.10507  -0.00105   0.00022  -0.00398  -0.00375   2.10132
   A24        2.08888   0.00010  -0.00037  -0.00132  -0.00169   2.08718
   A25        2.08923   0.00094   0.00014   0.00531   0.00544   2.09468
   A26        2.09972  -0.00060   0.00011  -0.00263  -0.00259   2.09714
   A27        2.10783  -0.00158  -0.00050  -0.01163  -0.01229   2.09555
   A28        2.07560   0.00218   0.00040   0.01447   0.01470   2.09030
   A29        2.09410  -0.00024  -0.00000  -0.00056  -0.00058   2.09351
   A30        2.09318  -0.00020  -0.00003  -0.00179  -0.00181   2.09137
   A31        2.09589   0.00044   0.00003   0.00235   0.00239   2.09828
   A32        2.09851  -0.00029   0.00009  -0.00098  -0.00086   2.09765
   A33        2.09013  -0.00016  -0.00010  -0.00158  -0.00170   2.08843
   A34        2.09453   0.00044   0.00001   0.00253   0.00252   2.09705
   A35        2.08890   0.00039  -0.00012   0.00196   0.00183   2.09073
   A36        2.09660  -0.00011   0.00005  -0.00046  -0.00042   2.09619
   A37        2.09768  -0.00028   0.00007  -0.00151  -0.00145   2.09623
    D1        3.03727   0.00029  -0.00031   0.00874   0.00850   3.04576
    D2       -0.11673  -0.00003   0.00036  -0.00322  -0.00281  -0.11954
    D3        3.07312   0.00090  -0.00032   0.03166   0.03131   3.10443
    D4       -0.07455   0.00021   0.00054  -0.00542  -0.00483  -0.07938
    D5       -2.45077   0.00097   0.00019   0.00157   0.00173  -2.44904
    D6        1.73707   0.00058  -0.00050  -0.00773  -0.00829   1.72878
    D7       -0.42439   0.00129  -0.00026   0.00132   0.00107  -0.42332
    D8       -0.27098  -0.00128   0.00139  -0.01725  -0.01595  -0.28693
    D9       -2.36632  -0.00167   0.00071  -0.02654  -0.02597  -2.39229
   D10        1.75540  -0.00096   0.00094  -0.01750  -0.01662   1.73878
   D11        1.66955   0.00058   0.00050  -0.00185  -0.00139   1.66816
   D12       -0.42580   0.00018  -0.00018  -0.01114  -0.01141  -0.43720
   D13       -2.58726   0.00089   0.00005  -0.00210  -0.00205  -2.58931
   D14       -1.63341   0.00066   0.00014  -0.00616  -0.00604  -1.63945
   D15        1.46281   0.00049  -0.00082  -0.01957  -0.02039   1.44242
   D16        2.59207  -0.00110  -0.00054  -0.00556  -0.00603   2.58603
   D17       -0.59490  -0.00127  -0.00149  -0.01898  -0.02038  -0.61528
   D18        0.53080   0.00040  -0.00002   0.00096   0.00087   0.53167
   D19       -2.65616   0.00023  -0.00098  -0.01245  -0.01348  -2.66964
   D20        0.24815   0.00032  -0.00113   0.01149   0.01032   0.25847
   D21       -2.90700   0.00000  -0.00046  -0.00148  -0.00188  -2.90889
   D22        2.42244   0.00093   0.00003   0.01309   0.01305   2.43549
   D23       -0.73271   0.00062   0.00071   0.00011   0.00084  -0.73187
   D24       -1.75442  -0.00035  -0.00050   0.00105   0.00042  -1.75400
   D25        1.37361  -0.00067   0.00017  -0.01193  -0.01179   1.36183
   D26        0.22667   0.00006  -0.00117   0.01269   0.01142   0.23809
   D27       -2.92157  -0.00068  -0.00031  -0.02787  -0.02819  -2.94976
   D28        2.37137   0.00136   0.00039   0.03294   0.03323   2.40460
   D29       -0.77687   0.00062   0.00124  -0.00761  -0.00638  -0.78325
   D30       -1.84295   0.00042  -0.00036   0.02239   0.02194  -1.82102
   D31        1.29199  -0.00032   0.00049  -0.01817  -0.01767   1.27431
   D32        3.09873  -0.00048  -0.00090  -0.02190  -0.02292   3.07580
   D33       -0.04122  -0.00049  -0.00091  -0.02269  -0.02367  -0.06489
   D34        0.00153  -0.00020   0.00003  -0.00838  -0.00839  -0.00686
   D35       -3.13842  -0.00021   0.00002  -0.00917  -0.00913   3.13563
   D36       -3.09870   0.00033   0.00090   0.01875   0.01968  -3.07902
   D37        0.03475   0.00098   0.00141   0.04799   0.04922   0.08397
   D38       -0.00236   0.00013  -0.00005   0.00526   0.00523   0.00288
   D39        3.13110   0.00078   0.00046   0.03451   0.03477  -3.11732
   D40        0.00317   0.00007   0.00007   0.00315   0.00322   0.00639
   D41        3.13876   0.00004  -0.00008   0.00147   0.00140   3.14016
   D42       -3.14007   0.00008   0.00008   0.00392   0.00396  -3.13611
   D43       -0.00448   0.00005  -0.00007   0.00224   0.00214  -0.00234
   D44       -0.00150   0.00006  -0.00003   0.00308   0.00307   0.00158
   D45       -3.13622   0.00014   0.00027   0.00700   0.00733  -3.12890
   D46       -3.13510  -0.00056  -0.00052  -0.02551  -0.02624   3.12184
   D47        0.01335  -0.00048  -0.00022  -0.02159  -0.02199  -0.00863
   D48       -0.00701   0.00013  -0.00015   0.00526   0.00512  -0.00189
   D49        3.13340  -0.00005  -0.00021  -0.00265  -0.00289   3.13051
   D50        3.14059   0.00016  -0.00000   0.00695   0.00696  -3.13563
   D51       -0.00219  -0.00002  -0.00006  -0.00096  -0.00105  -0.00324
   D52        0.00619  -0.00019   0.00013  -0.00836  -0.00827  -0.00208
   D53       -3.13421  -0.00001   0.00019  -0.00044  -0.00025  -3.13447
   D54        3.14090  -0.00028  -0.00017  -0.01231  -0.01256   3.12834
   D55        0.00049  -0.00010  -0.00011  -0.00439  -0.00455  -0.00405
         Item               Value     Threshold  Converged?
 Maximum Force            0.008370     0.000450     NO 
 RMS     Force            0.001801     0.000300     NO 
 Maximum Displacement     0.066746     0.001800     NO 
 RMS     Displacement     0.019044     0.001200     NO 
 Predicted change in Energy=-6.701823D-04
 GradGradGradGradGradGradGradGradGradGradGradGradGradGradGradGradGradGrad

                          Input orientation:                          
 ---------------------------------------------------------------------
 Center     Atomic      Atomic             Coordinates (Angstroms)
 Number     Number       Type             X           Y           Z
 ---------------------------------------------------------------------
      1          8           0        2.601449    0.738827    0.014251
      2          8           0        1.023764    2.158016   -0.699690
      3          8           0        3.743872   -1.055272    0.709317
      4          6           0        0.568740   -0.246094   -0.696503
      5          6           0        1.390877   -1.280627    0.091856
      6          6           0       -0.880174   -0.145998   -0.292963
      7          6           0        1.354676    1.044636   -0.478707
      8          6           0        2.728451   -0.598291    0.309072
      9          6           0       -1.838088   -0.888552   -0.980548
     10          6           0       -1.265101    0.624450    0.803473
     11          6           0       -3.169232   -0.870120   -0.573490
     12          6           0       -2.595886    0.647710    1.208738
     13          6           0       -3.550504   -0.100122    0.522345
     14          1           0        0.635791   -0.453922   -1.775192
     15          1           0        1.537002   -2.241375   -0.407685
     16          1           0        0.940859   -1.472324    1.074497
     17          1           0       -1.539151   -1.487242   -1.841845
     18          1           0       -0.526903    1.226783    1.334177
     19          1           0       -3.910148   -1.452703   -1.118255
     20          1           0       -2.889523    1.261371    2.058572
     21          1           0       -4.592470   -0.075751    0.836478
 ---------------------------------------------------------------------
                    Distance matrix (angstroms):
                    1          2          3          4          5
     1  O    0.000000
     2  O    2.238950   0.000000
     3  O    2.237641   4.439539   0.000000
     4  C    2.367941   2.446794   3.565467   0.000000
     5  C    2.355780   3.547616   2.443078   1.538725   0.000000
     6  C    3.605412   3.016436   4.818002   1.507387   2.567711
     7  C    1.375125   1.182350   3.395478   1.526799   2.394514
     8  C    1.375112   3.394228   1.183262   2.408230   1.517191
     9  C    4.831922   4.189350   5.834528   2.507241   3.424907
    10  C    3.947932   3.138507   5.283951   2.524034   3.345136
    11  C    6.019544   5.173659   7.033554   3.791698   4.626639
    12  C    5.333610   4.361765   6.583472   3.800485   4.567295
    13  C    6.229648   5.245615   7.359021   4.298264   5.098642
    14  H    2.913514   2.851219   4.024248   1.100572   2.177030
    15  H    3.192597   4.438842   2.743138   2.236536   1.092671
    16  H    2.961565   4.041532   2.857301   2.185990   1.097655
    17  H    5.054210   4.600104   5.882632   2.701011   3.516668
    18  H    3.430290   2.721833   4.882391   2.737419   3.392395
    19  H    6.963208   6.128293   7.879213   4.657705   5.440114
    20  H    5.882438   4.870914   7.154667   4.671453   5.352714
    21  H    7.286430   6.236314   8.394654   5.386755   6.148709
                    6          7          8          9         10
     6  C    0.000000
     7  C    2.539028   0.000000
     8  C    3.686352   2.281898   0.000000
     9  C    1.393470   3.766006   4.754014   0.000000
    10  C    1.394249   2.946824   4.205708   2.408364   0.000000
    11  C    2.417196   4.913351   5.969545   1.392114   2.784866
    12  C    2.414280   4.314158   5.541703   2.779808   1.391319
    13  C    2.792399   5.135500   6.302295   2.410950   2.413939
[...]
 0038977,-0.00030561,0.00168804,-0.00034866,-0.00011867,0.00012142,-0.0
 2778999,-0.01041228,-0.02496448,0.06970760,0.30345833,-0.00065923,-0.0
 0099032,-0.00044742,0.00072922,-0.00115151,-0.00082115,-0.00004179,-0.
 00022356,-0.00000159,0.00867799,-0.00403747,-0.00480259,-0.00134039,-0
 .00039884,-0.00109021,0.07331222,-0.10275367,-0.25047767,-0.00084245,0
 .00126728,0.00051281,-0.00043611,0.00079809,0.00019740,-0.05843355,-0.
 03123925,-0.03008194,-0.01277515,0.24736039,0.53572141,-0.00021538,0.0
 0004040,-0.00022040,-0.00047891,0.00012719,0.00019905,0.00003888,0.000
 07799,-0.00013975,0.00043954,-0.00297144,-0.00218818,-0.00050963,0.000
 94978,0.00024315,-0.05045621,-0.03729724,-0.04990349,-0.00043073,0.000
 07595,-0.00004561,-0.00012606,-0.00035330,0.00045792,-0.32335003,0.024
 37755,0.09398247,-0.03989672,0.01802665,0.03675026,0.70284658,0.000250
 23,0.00000241,0.00009536,0.00014511,0.00001660,0.00006263,-0.00021051,
 -0.00007635,0.00003049,-0.00247194,0.00467287,-0.00420548,-0.00090404,
 -0.00080433,0.00008560,-0.00608687,0.01977870,0.02306521,0.00054184,0.
 00008753,0.00000627,-0.00011442,0.00043654,-0.00036793,-0.01534453,-0.
 08311547,-0.02879769,0.01712094,-0.01236573,-0.01498176,0.07128926,0.3
 0119307,-0.00046901,-0.00019025,-0.00038471,0.00051556,-0.00029468,0.0
 0003698,0.00007719,0.00016864,0.00007893,-0.00304301,-0.00516979,0.000
 90937,0.00130409,-0.00039523,-0.00014240,0.00122448,0.02925204,0.05391
 956,-0.00094777,0.00127374,0.00021341,0.00009620,-0.00062199,-0.000122
 80,0.02933005,-0.03691064,-0.13024523,0.03525068,-0.01460411,-0.037907
 82,0.00010591,0.25466543,0.55514965,-0.00001058,-0.00011416,0.00006950
 ,0.00106549,-0.00047154,-0.00009622,0.00005225,0.00005643,0.00020599,0
 .00327858,-0.00038397,0.00094400,0.00048568,-0.00087565,-0.00086037,0.
 00899242,0.05070700,0.08392675,-0.00051121,0.00086752,-0.00049274,-0.0
 0004644,-0.00027867,-0.00063340,-0.07695693,-0.01660371,-0.01206171,-0
 .33354150,-0.01371357,0.03334732,0.06486197,-0.02830677,-0.05805816,0.
 67395503,-0.00004916,0.00041361,-0.00003812,-0.00025300,0.00050179,0.0
 0021066,-0.00024514,0.00006865,-0.00001805,0.00016236,0.00287109,-0.00
 562138,-0.00091514,-0.00015333,-0.00003493,0.01984947,0.01334177,0.006
 22343,0.00057383,-0.00111698,0.00005122,0.00011395,-0.00012740,-0.0002
 3719,-0.01609867,-0.00858507,-0.00045585,0.02640080,-0.08350636,-0.037
 31759,0.00144433,-0.01117572,-0.02988775,0.03735370,0.30902586,0.00019
 394,0.00013194,0.00013154,-0.00005372,0.00042355,0.00012443,-0.0000775
 1,0.00005138,-0.00000875,0.00078219,-0.00451065,-0.00290301,-0.0000089
 6,0.00015894,-0.00016733,0.03167794,-0.00070868,0.00068514,-0.00070449
 ,-0.00097324,-0.00037677,0.00028226,-0.00019713,-0.00000259,-0.0119133
 7,-0.00084232,-0.00469931,0.09839873,-0.02908959,-0.13138343,-0.009030
 50,-0.02370773,-0.03007992,-0.04966604,0.26667393,0.57786074,-0.000267
 28,-0.00010107,-0.00008172,-0.00021928,-0.00040275,0.00004865,-0.00042
 967,-0.00004578,-0.00017591,-0.00033673,-0.00008643,-0.00125972,-0.000
 47153,-0.00009420,0.00060905,-0.00539570,-0.01153485,-0.01918335,0.000
 42273,0.00063351,0.00016203,0.00044571,0.00024241,0.00019884,0.0103347
 0,0.02003911,0.03220169,-0.05071985,-0.00687820,0.00169109,-0.14427995
 ,0.03900141,0.08029291,-0.23658904,-0.08977435,-0.11007929,0.73308811,
 0.00003366,0.00005759,-0.00002230,-0.00027763,0.00008983,-0.00003172,0
 .00002841,-0.00001375,-0.00009184,-0.00032922,-0.00104539,-0.00013683,
 -0.00022467,0.00055462,0.00019384,-0.01090013,-0.02873114,-0.03322261,
 -0.00004214,-0.00012346,0.00007275,-0.00000564,-0.00000012,0.00029945,
 0.05022172,0.01321470,-0.00052033,-0.03638716,0.02069229,0.02898679,-0
 .00091801,-0.13293235,-0.11392198,-0.04936168,-0.12173098,-0.08274953,
 0.04235597,0.28729767,0.00009894,0.00011144,0.00002379,-0.00065353,0.0
 0042806,0.00008490,0.00016643,-0.00001613,-0.00008837,-0.00025308,-0.0
 0005530,-0.00098351,-0.00038582,0.00086407,0.00034408,-0.01851367,-0.0
 3264832,-0.05742996,0.00017365,-0.00086384,0.00001239,-0.00022923,0.00
 000018,0.00037283,0.08144138,0.00606882,-0.00046734,-0.04737577,0.0223
 2050,0.05422397,0.01509439,-0.12182467,-0.26626887,-0.04509538,-0.0751
 3973,-0.17609264,-0.05378449,0.23695549,0.53430154,-0.00301388,-0.0000
 8213,0.00216754,-0.00046042,0.00006815,0.00172301,-0.00076426,0.000273
 31,0.00018454,-0.04596698,0.00129239,0.01248452,0.00078152,-0.00398664
 ,-0.01564928,-0.00325616,0.01161316,0.03115144,0.00224436,-0.00416136,
 -0.01658922,0.00062070,-0.00046455,-0.00071191,0.00155782,0.00120212,0
 .00122097,-0.00622686,-0.00077723,0.00066087,-0.00012254,0.00002409,0.
 00008251,0.00041802,0.00114611,0.00105970,0.00001057,-0.00021691,-0.00
 022283,0.05581529,-0.00398183,-0.00009125,0.00245978,-0.00188721,-0.00
 053399,0.00498784,0.00055805,0.00027503,-0.00042333,0.00354366,-0.0703
 7358,-0.08119316,0.00001320,0.00587641,0.02251037,0.00124356,-0.000646
 62,-0.00231882,0.00519744,-0.00979926,-0.03240063,-0.00031873,-0.00197
 295,0.00107725,-0.00102037,-0.00002784,0.00077783,0.00051376,0.0008402
 0,-0.00036153,0.00017414,-0.00018900,0.00004210,-0.00000800,0.00001896
 ,-0.00009361,-0.00003254,0.00007242,0.00003617,-0.00592424,0.07681165,
 0.00063100,-0.00126314,0.00028252,-0.00031703,0.00119773,-0.00020806,-
 0.00047406,-0.00030140,0.00022196,0.01784177,-0.07539485,-0.27681672,0
 .00017080,-0.00386088,-0.01644141,0.00111580,-0.00339248,-0.00825268,-
 0.00156674,-0.00229346,-0.00100906,0.00044125,0.00160587,-0.00138354,-
 0.00233654,-0.00006025,0.00083654,0.00184407,0.00027655,0.00049782,0.0
 0034758,-0.00011691,0.00000344,-0.00053140,-0.00041850,-0.00029989,0.0
 0004469,0.00016515,0.00031335,-0.01573035,0.08206668,0.30150969,-0.002
 81447,-0.00491070,0.00403298,0.00136265,0.00122772,0.00036560,-0.00010
 889,0.00270558,0.00268595,-0.00179078,0.01641615,0.00736512,-0.0524909
 3,0.04187261,0.01282610,0.00044987,0.00047524,-0.00101558,-0.00562127,
 -0.00012410,-0.00299864,0.00881528,-0.02756565,-0.01400327,0.00015188,
 -0.00005812,0.00016970,-0.00061168,0.00015820,0.00040870,-0.00037176,-
 0.00002152,0.00024300,0.00049984,0.00006973,-0.00004812,-0.00020675,-0
 .00018993,-0.00032877,0.00084057,-0.00099530,0.00041317,0.05338068,-0.
 00213681,-0.00073653,0.00028707,-0.00010944,-0.00129654,0.00004475,0.0
 0068039,0.00179262,0.00127642,-0.00018325,-0.01009894,-0.00421768,0.03
 946257,-0.28219751,-0.09253445,0.00003898,-0.00038419,0.00059915,0.001
 25808,-0.00013316,0.00089963,0.00342064,-0.01485382,-0.00443804,0.0000
 0827,-0.00010241,-0.00012880,0.00007011,0.00004360,-0.00001082,0.00010
 445,-0.00001958,-0.00005323,-0.00009946,0.00000209,0.00002587,0.000088
 25,0.00004375,0.00006956,-0.00003149,0.00080012,0.00002409,-0.04194507
 ,0.30378593,0.00083680,0.00026317,0.00076560,0.00102544,0.00178589,0.0
 0012564,-0.00135417,0.00048328,0.00023927,-0.00149515,0.01925067,0.006
 98272,0.01213949,-0.09446310,-0.07882280,0.00085413,0.00054885,-0.0007
 2608,-0.00406677,0.00210413,-0.00257382,0.00374033,0.00035727,-0.00270
 464,-0.00012043,-0.00002842,0.00014327,-0.00017702,-0.00027704,0.00002
 936,-0.00002276,-0.00001394,0.00000756,0.00007795,-0.00003201,0.000144
 52,-0.00002929,0.00000547,-0.00005816,0.00019872,-0.00009073,0.0011872
 8,-0.01434943,0.09668698,0.08455660,-0.00003089,-0.00333524,-0.0027210
 9,0.00017533,0.00060429,0.00043667,0.00060738,-0.00145131,-0.00496336,
 0.00731336,0.00202776,-0.01951359,-0.08837801,-0.00812504,0.10360176,0
 .00079455,-0.00066761,-0.00141814,-0.00166354,-0.00046263,-0.00085624,
 -0.01287363,0.00143335,0.03067248,-0.00012223,-0.00011469,-0.00017728,
 0.00008856,0.00022189,0.00020868,0.00007280,-0.00000006,-0.00003386,-0
 .00029430,-0.00009805,0.00010830,0.00005907,0.00006626,0.00011978,-0.0
 0141096,0.00305197,-0.00235998,-0.00144085,-0.00067477,0.00274783,0.09
 697693,-0.00030522,-0.00291538,-0.00271173,0.00016761,-0.00070577,-0.0
 0023086,0.00090912,-0.00005677,-0.00139173,-0.00647457,-0.00132066,0.0
 1539095,-0.00801840,-0.04475402,0.01724821,-0.00058776,0.00092742,0.00
 016842,-0.00014976,0.00035522,0.00075739,-0.00680573,-0.00140821,0.017
 09912,0.00028535,-0.00002688,-0.00008554,0.00013969,0.00046164,0.00058
 817,-0.00025170,-0.00002631,0.00018388,0.00025397,-0.00006581,-0.00026
 648,-0.00017410,-0.00017745,-0.00013858,0.00098235,-0.00129526,0.00115
 010,0.01297492,0.00332991,-0.02681408,0.00712477,0.04839980,0.00121250
 ,-0.00180214,-0.00037266,0.00028393,0.00053280,0.00033485,-0.00109942,
 0.00008467,-0.00124182,0.00474447,0.00173903,-0.01732869,0.09787703,0.
 01532337,-0.26205664,0.00224295,-0.00051059,0.00091601,-0.00182247,-0.
 00058849,-0.00146299,-0.00017143,0.00190987,0.00565323,-0.00078794,-0.
 00043429,-0.00010429,0.00016654,-0.00022654,0.00032868,0.00039846,-0.0
 0012250,-0.00038176,-0.00056695,-0.00004748,0.00016092,0.00023636,0.00
 030384,0.00039821,-0.00112264,0.00278652,-0.00076440,0.00439623,0.0014
 5351,-0.00932297,-0.10593723,-0.02064154,0.28523299,0.00024075,0.00009
 843,0.00004240,-0.00000598,0.00030180,-0.00003635,0.00011694,-0.000012
 69,0.00004432,0.00149398,0.00020378,-0.00164198,-0.00007698,-0.0000393
 4,0.00002571,0.00785642,-0.01056239,-0.01831483,-0.00008501,-0.0004969
 5,0.00011751,-0.00021259,0.00003278,-0.00009511,-0.07339877,0.03008958
 ,0.05719375,-0.00271320,-0.00278776,-0.00246126,-0.00143138,0.01504858
 ,0.02576106,-0.00134657,-0.00024254,-0.00040362,-0.00546193,-0.0006636
 3,0.00158865,-0.00076269,-0.00014321,0.00043806,-0.00000724,0.00003430
 ,-0.00000758,0.00005714,-0.00004353,0.00006316,0.07506117,-0.00000231,
 -0.00020070,-0.00005060,0.00011218,-0.00006890,0.00016256,0.00012314,0
 .00000499,0.00003116,0.00113727,-0.00295292,0.00179688,0.00033385,0.00
 027001,0.00016173,0.00463098,-0.00249849,-0.01140756,-0.00052893,0.000
 27767,-0.00010245,0.00003249,-0.00008632,0.00003449,0.02970467,-0.1057
 3586,-0.12038624,-0.00297516,0.00429990,-0.00374114,-0.00082736,0.0025
 7344,-0.00105302,-0.00028538,-0.00076404,0.00084136,-0.00030551,0.0059
 0673,-0.00242191,-0.00084698,0.00028271,0.00033718,0.00006474,0.000004
 10,0.00001825,0.00007844,-0.00001922,0.00005150,-0.03130213,0.10221006
 ,0.00021340,0.00021893,-0.00003986,-0.00008598,0.00027146,-0.00003531,
 -0.00001799,0.00000494,0.00000044,0.00085449,0.00248388,-0.00048631,-0
 .00037253,-0.00010103,-0.00000277,0.00736358,-0.00782938,-0.01093504,0
 .00025638,-0.00043371,0.00039960,-0.00014248,0.00004553,-0.00005736,0.
 05635016,-0.12078913,-0.24890826,-0.00300480,-0.00358911,0.00145221,-0
 .00035182,-0.00438806,-0.00363233,-0.00053016,0.00079251,0.00021991,0.
 00217111,-0.00221317,0.00316363,-0.00094016,-0.00013930,0.00035979,-0.
 00015871,0.00002774,-0.00004539,0.00006821,-0.00007023,0.00004043,-0.0
 6200367,0.13401815,0.26035164,0.00011604,-0.00003744,-0.00018870,-0.00
 050632,0.00030950,0.00035166,0.00007342,-0.00004458,0.00004611,0.00034
 706,0.00068639,-0.00014754,0.00000969,0.00002557,0.00001629,0.00792697
 ,0.00350401,0.00465349,0.00027211,-0.00086229,0.00085353,-0.00010435,0
 .00030174,-0.00012614,0.00102046,0.00045636,0.00232007,-0.19424200,-0.
 08674677,-0.10257967,-0.00026328,0.00068032,0.00085361,-0.01557324,-0.
 01429655,-0.01861478,-0.00467622,0.00041618,0.00344671,0.00007703,-0.0
 0004751,-0.00012077,0.00001403,-0.00000231,0.00002569,0.00002524,-0.00
 000204,-0.00010235,0.00038209,0.00021548,0.00032891,0.20550923,0.00036
 542,-0.00057233,0.00025368,0.00025532,-0.00064843,0.00012591,-0.000016
 58,-0.00010429,0.00002728,-0.00007209,-0.00205670,0.00181885,0.0003339
 0,0.00035908,-0.00019780,-0.01231729,-0.00254932,-0.00674891,-0.000659
 90,0.00111228,-0.00058720,0.00052294,0.00034090,-0.00005259,0.00094823
 ,0.00370657,-0.00495169,-0.08799748,-0.09792917,-0.07635907,0.00066373
 ,-0.00083762,0.00036926,0.00242521,0.00469843,0.00072585,0.00025686,0.
 00571461,-0.00271757,-0.00011066,0.00000021,0.00014644,-0.00016673,0.0
 0000618,0.00021135,0.00029177,-0.00071158,0.00016154,-0.00058611,-0.00
 010135,-0.00047548,0.09539610,0.09298751,-0.00019044,0.00083593,-0.000
 28345,-0.00050387,0.00081003,0.00029006,-0.00032823,0.00023971,-0.0001
 7302,-0.00145600,0.00169063,-0.00024978,0.00008526,-0.00005023,0.00001
 847,-0.01999704,-0.01100618,-0.00947319,0.00217982,-0.00136147,-0.0008
 0166,0.00046369,-0.00078694,0.00018927,0.00290634,-0.00510144,-0.00193
 450,-0.10303637,-0.07474078,-0.13249421,0.00090884,0.00043987,-0.00061
 365,0.00748864,0.00400962,0.00861394,0.00263072,-0.00287837,0.00254197
 ,0.00002824,0.00026225,0.00002734,-0.00000281,0.00000371,0.00005600,0.
 00002386,-0.00019974,-0.00001451,-0.00100909,-0.00059586,-0.00058541,0
 .11007554,0.08564518,0.13565697,-0.00027710,-0.00008495,-0.00015736,-0
 .00001389,-0.00023818,0.00001842,-0.00019862,0.00002947,-0.00006067,-0
 .00059924,-0.00080598,-0.00084755,-0.00013560,-0.00013082,0.00012605,-
 0.00426436,0.00053275,0.00309891,-0.00005680,0.00057412,0.00011016,0.0
 0017880,-0.00004921,0.00005654,-0.01529827,-0.01362841,-0.01853664,-0.
 00027013,0.00068840,0.00098068,-0.20066088,-0.08679731,-0.10964136,0.0
 0114877,0.00055477,0.00220997,0.00911040,0.00416025,0.00577081,0.00006
 174,0.00000097,-0.00000655,-0.00003346,0.00001496,-0.00001945,0.000013
 91,-0.00000747,-0.00000344,0.00047500,0.00060030,0.00008598,-0.0000175
 4,0.00003946,-0.00015356,0.21004120,0.00000839,-0.00003846,0.00002343,
 0.00002728,-0.00006268,0.00005371,-0.00002596,-0.00001698,-0.00000967,
 0.00022487,0.00003105,-0.00009136,-0.00005907,0.00008727,-0.00002190,0
 .00003464,0.00580371,-0.00271060,0.00006409,0.00012588,-0.00010887,0.0
 0003086,0.00004354,0.00001291,0.00257592,0.00424914,0.00084582,0.00069
 382,-0.00091997,0.00045919,-0.08682847,-0.09481489,-0.07536382,0.00074
 457,0.00434453,-0.00554060,-0.01185290,-0.00196859,-0.00702133,-0.0000
 0814,-0.00001219,0.00003208,0.00000033,0.00000313,-0.00000334,-0.00003
 558,0.00001966,0.00003265,0.00021483,-0.00271961,0.00201033,0.00005579
 ,-0.00073216,0.00047458,0.09407541,0.08964154,0.00000334,0.00005120,0.
 00002242,-0.00003244,0.00005502,-0.00001546,-0.00001330,0.00001224,0.0
 0000346,0.00034910,0.00026145,0.00029627,0.00003740,-0.00007364,-0.000
 01498,0.00293560,-0.00264946,0.00252929,0.00006211,-0.00014789,0.00001
 099,0.00003211,-0.00001830,-0.00001120,0.00774522,0.00412424,0.0086165
 5,0.00103576,0.00045271,-0.00076655,-0.10970446,-0.07552114,-0.1396465
 6,0.00261648,-0.00549518,-0.00193242,-0.02061459,-0.01024063,-0.008855
 90,-0.00003013,0.00000447,-0.00002095,0.00000853,-0.00000544,0.0000122
 3,0.00002461,-0.00002629,-0.00002134,-0.00058122,0.00196280,-0.0006227
 7,-0.00015775,0.00044287,-0.00027001,0.11721255,0.08522640,0.14195855,
 -0.00016068,-0.00006348,-0.00009940,-0.00000234,-0.00025680,-0.0000218
 6,-0.00013174,0.00000146,-0.00005657,-0.00004697,0.00055447,0.00127296
 ,0.00001123,-0.00009936,0.00007090,-0.00520022,-0.00055797,0.00154814,
 0.00029162,0.00051810,0.00007151,0.00014767,0.00002268,0.00007001,-0.0
 0140314,-0.00033310,-0.00044609,-0.00186722,0.01534301,0.02568261,-0.0
 0273598,-0.00276790,-0.00248162,-0.07415788,0.03117190,0.05695497,0.00
 992081,-0.01133419,-0.01935728,-0.00043285,0.00004655,0.00014242,-0.00
 001096,0.00000519,-0.00001916,0.00001669,0.00001672,-0.00001384,0.0000
 7127,0.00012557,-0.00001293,0.00052310,0.00026331,-0.00054092,0.000285
 02,-0.00056480,-0.00101651,0.07437981,0.00010116,-0.00007803,0.0000887
 5,0.00000987,-0.00004637,0.00003764,0.00006722,-0.00003295,0.00004492,
 -0.00007885,0.00019185,-0.00010423,0.00004166,-0.00006405,0.00004014,-
 0.00049764,0.00620894,-0.00232652,-0.00012822,-0.00006319,-0.00010218,
 -0.00006494,0.00009174,-0.00007370,-0.00046678,-0.00068954,0.00080874,
 -0.00101392,0.00281392,-0.00138742,-0.00291831,0.00447443,-0.00392499,
 0.03121966,-0.11260966,-0.12485715,0.00501893,-0.00207144,-0.01035556,
 0.00006113,-0.00007079,0.00003848,0.00003170,0.00000187,-0.00000032,0.
 00005151,0.00000083,-0.00004141,0.00012419,-0.00073551,0.00039299,0.00
 070235,-0.00276085,0.00213971,0.00025500,-0.00025261,-0.00051452,-0.03
 271347,0.10830842,0.00005989,0.00008765,0.00000478,0.00002516,0.000208
 96,-0.00002597,0.00009443,0.00001560,0.00002370,-0.00016560,-0.0002376
 3,-0.00024078,0.00003401,0.00008971,-0.00008871,0.00194842,-0.00268292
 ,0.00326757,-0.00009229,-0.00027866,0.00003777,-0.00012422,-0.00006555
 ,-0.00001261,-0.00042948,0.00085160,0.00030327,-0.00041742,-0.00445766
 ,-0.00324481,-0.00284698,-0.00398356,0.00155217,0.05726163,-0.12449131
 ,-0.24896043,0.00669685,-0.00736809,-0.00936193,0.00011952,0.00002379,
 -0.00006131,-0.00000074,-0.00001013,0.00000450,-0.00004067,0.00002314,
 0.00000718,-0.00001255,0.00041882,-0.00033497,-0.00001701,0.00212951,-
 0.00076248,0.00034009,-0.00031891,-0.00058863,-0.06184909,0.13808392,0
 .25916538,-0.00007810,0.00004500,-0.00003103,-0.00006524,-0.00000857,0
 .00004574,-0.00009154,0.00002909,-0.00003131,-0.00005626,0.00007408,0.
 00003721,0.00001060,-0.00000880,-0.00001822,0.00064851,-0.00019658,-0.
 00067922,0.00018506,0.00002428,-0.00004047,0.00013338,-0.00007500,0.00
 003461,0.00181101,0.00018369,0.00145442,-0.00130495,-0.00284069,-0.002
 88006,-0.00293032,-0.00107591,-0.00046245,-0.01573037,0.00313163,0.008
 93238,-0.31433820,0.01356849,0.07829913,-0.00001001,0.00001564,0.00001
 279,-0.00000578,-0.00000358,0.00001484,0.00001346,-0.00003424,0.000006
 07,-0.00025242,-0.00008537,-0.00007098,-0.00091351,0.00016458,0.000427
 36,0.00051107,0.00062412,0.00008759,0.00050277,0.00019774,-0.00058395,
 0.33196085,0.00000549,-0.00004815,0.00001603,0.00003021,-0.00000903,0.
 00002550,0.00003745,0.00000223,0.00000559,0.00019230,-0.00067895,0.000
 47552,0.00010981,0.00008785,0.00003326,-0.00023694,-0.00116251,-0.0003
 4894,-0.00010041,0.00000548,-0.00014516,0.00000912,-0.00003035,0.00002
 518,-0.00000282,0.00417317,-0.00577614,-0.00265068,0.00407684,-0.00450
 597,0.01501441,0.00312177,-0.00356360,-0.01312552,0.00454853,0.0045039
 0,0.01364623,-0.04484954,-0.01365135,-0.00005247,0.00003504,0.00006153
 ,-0.00001981,0.00000936,0.00000765,0.00001293,-0.00001117,0.00003568,0
 .00073201,0.00005329,-0.00023785,-0.00071030,0.00007803,0.00016979,0.0
 0021647,-0.00281131,0.00209909,0.00062212,-0.00261699,0.00196171,-0.01
 372961,0.03602641,0.00005048,0.00007606,0.00000916,-0.00004482,0.00008
 401,0.00001813,-0.00000608,0.00000581,-0.00000038,-0.00005211,0.000547
 13,-0.00018495,-0.00006497,-0.00000815,-0.00001068,-0.00057323,-0.0002
 6429,-0.00124692,0.00010428,-0.00014745,0.00005062,-0.00001147,-0.0000
 1258,-0.00001581,0.00104767,-0.00585156,-0.00214727,-0.00254892,-0.004
 44850,0.00055570,0.02596592,-0.00041952,-0.00244502,-0.01734571,0.0012
 7371,0.00896536,0.07822437,-0.01358536,-0.07617399,-0.00008506,-0.0000
 1392,0.00001828,-0.00000902,0.00000011,-0.00000069,0.00000924,-0.00003
 258,-0.00000044,0.00129264,-0.00007611,-0.00030187,-0.00091691,0.00003
 260,0.00026186,-0.00058359,0.00201929,-0.00068298,0.00010173,0.0020127
 1,-0.00068367,-0.08455445,0.01880858,0.07401554\\0.00003086,-0.0000075
 7,0.00000574,0.00000152,0.00000056,0.00000479,0.00001308,-0.00000445,0
 .00000643,0.00001710,0.00000255,0.00001096,-0.00000002,0.00001204,-0.0
 0000299,-0.00001488,-0.00000566,-0.00001140,-0.00003209,-0.00000863,-0
 .00002560,-0.00002744,0.00001264,-0.00000271,0.00000359,-0.00000165,0.
 00000121,0.00000385,0.00000291,-0.00000504,0.00000181,-0.00000299,-0.0
 0000005,0.00000158,0.00000292,0.00000667,-0.00000024,-0.00000096,-0.00
 000235,0.00000052,0.00000060,0.00000162,-0.00000029,-0.00000249,0.0000
 0225,0.00000309,0.00000047,0.00000404,-0.00000225,-0.00000430,0.000004
 26,0.00000155,-0.00000002,0.00000213,-0.00000186,-0.00000147,0.0000040
 2,0.00000067,0.00000479,-0.00000365,-0.00000016,0.00000071,-0.00000032
 \\\@


 NEVER TEACH A PIG TO SING.
 IT WASTES YOUR TIME AND ANNOYS THE PIG.
     -- SEEN ON A GREETING CARD
 Job cpu time:       0 days  3 hours 32 minutes 35.0 seconds.
 Elapsed time:       0 days  0 hours 13 minutes 21.3 seconds.
 File lengths (MBytes):  RWF=    230 Int=      0 D2E=      0 Chk=     11 Scr=      1
 Normal termination of Gaussian 16 at Sun Sep 21 13:01:00 2025.
