 Entering Gaussian System, Link 0=g16
 Input=PYPE0152.gjf
 Output=PYPE0152.log
 Initial command:
 /usr/local/g16/l1.exe "/dados_01/scratch/Gau-2206593.inp" -scrdir="/dados_01/scratch/"
 Entering Link 1 = /usr/local/g16/l1.exe PID=   2206594.
  
 Copyright (c) 1988-2017, Gaussian, Inc.  All Rights Reserved.
  
 This is part of the Gaussian(R) 16 program.  It is based on
 the Gaussian(R) 09 system (copyright 2009, Gaussian, Inc.),
 the Gaussian(R) 03 system (copyright 2003, Gaussian, Inc.),
 the Gaussian(R) 98 system (copyright 1998, Gaussian, Inc.),
 the Gaussian(R) 94 system (copyright 1995, Gaussian, Inc.),
 the Gaussian 92(TM) system (copyright 1992, Gaussian, Inc.),
 the Gaussian 90(TM) system (copyright 1990, Gaussian, Inc.),
 the Gaussian 88(TM) system (copyright 1988, Gaussian, Inc.),
 the Gaussian 86(TM) system (copyright 1986, Carnegie Mellon
 University), and the Gaussian 82(TM) system (copyright 1983,
 Carnegie Mellon University). Gaussian is a federally registered
 trademark of Gaussian, Inc.
  
 This software contains proprietary and confidential information,
 including trade secrets, belonging to Gaussian, Inc.
  
 This software is provided under written license and may be
 used, copied, transmitted, or stored only in accord with that
 written license.
  
 The following legend is applicable only to US Government
 contracts under FAR:
  
                    RESTRICTED RIGHTS LEGEND
  
 Use, reproduction and disclosure by the US Government is
 subject to restrictions as set forth in subparagraphs (a)
 and (c) of the Commercial Computer Software - Restricted
 Rights clause in FAR 52.227-19.
  
 Gaussian, Inc.
 340 Quinnipiac St., Bldg. 40, Wallingford CT 06492
  
  
 ---------------------------------------------------------------
 Warning -- This program may not be used in any manner that
 competes with the business of Gaussian, Inc. or will provide
 assistance to any competitor of Gaussian, Inc.  The licensee
 of this program is prohibited from giving any competitor of
 Gaussian, Inc. access to this program.  By using this program,
 the user acknowledges that Gaussian, Inc. is engaged in the
 business of creating and licensing software in the field of
 computational chemistry and represents and warrants to the
 licensee that it is not a competitor of Gaussian, Inc. and that
 it will not use this program in any manner prohibited above.
 ---------------------------------------------------------------
  

 Cite this work as:
 Gaussian 16, Revision B.01,
 M. J. Frisch, G. W. Trucks, H. B. Schlegel, G. E. Scuseria, 
 M. A. Robb, J. R. Cheeseman, G. Scalmani, V. Barone, 
 G. A. Petersson, H. Nakatsuji, X. Li, M. Caricato, A. V. Marenich, 
 J. Bloino, B. G. Janesko, R. Gomperts, B. Mennucci, H. P. Hratchian, 
 J. V. Ortiz, A. F. Izmaylov, J. L. Sonnenberg, D. Williams-Young, 
 F. Ding, F. Lipparini, F. Egidi, J. Goings, B. Peng, A. Petrone, 
 T. Henderson, D. Ranasinghe, V. G. Zakrzewski, J. Gao, N. Rega, 
 G. Zheng, W. Liang, M. Hada, M. Ehara, K. Toyota, R. Fukuda, 
 J. Hasegawa, M. Ishida, T. Nakajima, Y. Honda, O. Kitao, H. Nakai, 
 T. Vreven, K. Throssell, J. A. Montgomery, Jr., J. E. Peralta, 
 F. Ogliaro, M. J. Bearpark, J. J. Heyd, E. N. Brothers, K. N. Kudin, 
 V. N. Staroverov, T. A. Keith, R. Kobayashi, J. Normand, 
 K. Raghavachari, A. P. Rendell, J. C. Burant, S. S. Iyengar, 
 J. Tomasi, M. Cossi, J. M. Millam, M. Klene, C. Adamo, R. Cammi, 
 J. W. Ochterski, R. L. Martin, K. Morokuma, O. Farkas, 
 J. B. Foresman, and D. J. Fox, Gaussian, Inc., Wallingford CT, 2016.
 
 ******************************************
 Gaussian 16:  ES64L-G16RevB.01 20-Dec-2017
                21-Sep-2025 
 ******************************************
 %nprocs=16
 Will use up to   16 processors via shared memory.
 %mem=40GB
 %chk=PYPE0152.chk
 ----------------------------------------------------------------------
 # opt freq=noraman M08HX/6-311++G** scf=xqc Empiricaldispersion=pfd In
 t(Grid=ultraFine)
 ----------------------------------------------------------------------
 1/18=20,19=15,26=4,38=1/1,3;
 2/9=110,12=2,17=6,18=5,40=1/2;
 3/5=4,6=6,7=1111,11=2,25=1,30=1,71=1,74=-74,75=-5,124=11/1,2,3;
 4//1;
 5/5=2,8=3,13=1,38=5/2,8;
 6/7=2,8=2,9=2,10=2,28=1/1;
 7//1,2,3,16;
 1/18=20,19=15,26=4/3(2);
 2/9=110/2;
 99//99;
 2/9=110/2;
 3/5=4,6=6,7=1111,11=2,25=1,30=1,71=1,74=-74,75=-5,124=11/1,2,3;
 4/5=5,16=3,69=1/1;
 5/5=2,8=3,13=1,38=5/2,8;
 7//1,2,3,16;
 1/18=20,19=15,26=4/3(-5);
 2/9=110/2;
 6/7=2,8=2,9=2,10=2,19=2,28=1/1;
 99/9=1/99;
 --------
 PYPE0152
 --------
 Symbolic Z-matrix:
 Charge =  0 Multiplicity = 1
 O                     0.0002   -0.3028    0. 
 C                     2.3918   -0.4179    0.0291 
 C                    -2.3918   -0.4178   -0.0291 
 C                     3.6951    0.3779    0.0294 
 C                    -3.6951    0.378    -0.0293 
 C                     1.1748    0.4963    0.0143 
 C                    -1.175     0.4966   -0.0143 
 C                     4.9115   -0.5471    0.0015 
 C                    -4.9115   -0.5471   -0.0015 
 C                     6.2107    0.242    -0.0326 
 C                    -6.2108    0.2419    0.0326 
 H                     2.3458   -1.0722    0.9087 
 H                     2.3537   -1.0838   -0.8422 
 H                    -2.3458   -1.0721   -0.9087 
 H                    -2.3536   -1.0836    0.8422 
 H                     3.7374    1.0162    0.9203 
 H                     3.7198    1.0408   -0.8443 
 H                    -3.7374    1.0163   -0.9201 
 H                    -3.7199    1.0408    0.8443 
 H                     1.1949    1.1339   -0.8773 
 H                     1.1742    1.1347    0.9056 
 H                    -1.1948    1.1341    0.8773 
 H                    -1.1742    1.1349   -0.9056 
 H                     4.9061   -1.1958    0.8851 
 H                     4.8649   -1.198    -0.8793 
 H                    -4.906    -1.1958   -0.8851 
 H                    -4.8649   -1.1981    0.8793 
 H                     6.2617    0.8759   -0.9236 
 H                     6.3041    0.882     0.8506 
 H                     7.0673   -0.439    -0.0508 
 H                    -6.2619    0.8756    0.9236 
 H                    -6.3041    0.8819   -0.8505 
 H                    -7.0674   -0.4391    0.0506 
 

 GradGradGradGradGradGradGradGradGradGradGradGradGradGradGradGradGradGrad
 Berny optimization.
 Initialization pass.
                           ----------------------------
                           !    Initial Parameters    !
                           ! (Angstroms and Degrees)  !
 --------------------------                            --------------------------
 ! Name  Definition              Value          Derivative Info.                !
 --------------------------------------------------------------------------------
 ! R1    R(1,6)                  1.4207         estimate D2E/DX2                !
 ! R2    R(1,7)                  1.4214         estimate D2E/DX2                !
 ! R3    R(2,4)                  1.5271         estimate D2E/DX2                !
 ! R4    R(2,6)                  1.5222         estimate D2E/DX2                !
 ! R5    R(2,12)                 1.0972         estimate D2E/DX2                !
 ! R6    R(2,13)                 1.0973         estimate D2E/DX2                !
 ! R7    R(3,5)                  1.5271         estimate D2E/DX2                !
 ! R8    R(3,7)                  1.5222         estimate D2E/DX2                !
 ! R9    R(3,14)                 1.0972         estimate D2E/DX2                !
 ! R10   R(3,15)                 1.0972         estimate D2E/DX2                !
 ! R11   R(4,8)                  1.5284         estimate D2E/DX2                !
 ! R12   R(4,16)                 1.0968         estimate D2E/DX2                !
 ! R13   R(4,17)                 1.097          estimate D2E/DX2                !
 ! R14   R(5,9)                  1.5285         estimate D2E/DX2                !
 ! R15   R(5,18)                 1.0967         estimate D2E/DX2                !
 ! R16   R(5,19)                 1.0969         estimate D2E/DX2                !
 ! R17   R(6,20)                 1.0963         estimate D2E/DX2                !
 ! R18   R(6,21)                 1.0963         estimate D2E/DX2                !
 ! R19   R(7,22)                 1.0962         estimate D2E/DX2                !
 ! R20   R(7,23)                 1.0963         estimate D2E/DX2                !
 ! R21   R(8,10)                 1.5204         estimate D2E/DX2                !
 ! R22   R(8,24)                 1.0962         estimate D2E/DX2                !
 ! R23   R(8,25)                 1.0962         estimate D2E/DX2                !
 ! R24   R(9,11)                 1.5205         estimate D2E/DX2                !
 ! R25   R(9,26)                 1.0962         estimate D2E/DX2                !
 ! R26   R(9,27)                 1.0963         estimate D2E/DX2                !
 ! R27   R(10,28)                1.0947         estimate D2E/DX2                !
 ! R28   R(10,29)                1.0947         estimate D2E/DX2                !
 ! R29   R(10,30)                1.0945         estimate D2E/DX2                !
 ! R30   R(11,31)                1.0946         estimate D2E/DX2                !
 ! R31   R(11,32)                1.0946         estimate D2E/DX2                !
 ! R32   R(11,33)                1.0945         estimate D2E/DX2                !
 ! A1    A(6,1,7)              111.5513         estimate D2E/DX2                !
 ! A2    A(4,2,6)              111.6771         estimate D2E/DX2                !
 ! A3    A(4,2,12)             110.2664         estimate D2E/DX2                !
 ! A4    A(4,2,13)             110.2457         estimate D2E/DX2                !
 ! A5    A(6,2,12)             109.4153         estimate D2E/DX2                !
 ! A6    A(6,2,13)             109.2074         estimate D2E/DX2                !
 ! A7    A(12,2,13)            105.8556         estimate D2E/DX2                !
 ! A8    A(5,3,7)              111.6665         estimate D2E/DX2                !
 ! A9    A(5,3,14)             110.2696         estimate D2E/DX2                !
 ! A10   A(5,3,15)             110.2455         estimate D2E/DX2                !
 ! A11   A(7,3,14)             109.421          estimate D2E/DX2                !
 ! A12   A(7,3,15)             109.2063         estimate D2E/DX2                !
 ! A13   A(14,3,15)            105.8595         estimate D2E/DX2                !
 ! A14   A(2,4,8)              111.3368         estimate D2E/DX2                !
 ! A15   A(2,4,16)             109.6556         estimate D2E/DX2                !
 ! A16   A(2,4,17)             109.5102         estimate D2E/DX2                !
 ! A17   A(8,4,16)             109.6546         estimate D2E/DX2                !
 ! A18   A(8,4,17)             109.4667         estimate D2E/DX2                !
 ! A19   A(16,4,17)            107.1213         estimate D2E/DX2                !
 ! A20   A(3,5,9)              111.3339         estimate D2E/DX2                !
 ! A21   A(3,5,18)             109.6538         estimate D2E/DX2                !
 ! A22   A(3,5,19)             109.5178         estimate D2E/DX2                !
 ! A23   A(9,5,18)             109.6543         estimate D2E/DX2                !
 ! A24   A(9,5,19)             109.4664         estimate D2E/DX2                !
 ! A25   A(18,5,19)            107.119          estimate D2E/DX2                !
 ! A26   A(1,6,2)              108.8623         estimate D2E/DX2                !
 ! A27   A(1,6,20)             109.5174         estimate D2E/DX2                !
 ! A28   A(1,6,21)             109.5878         estimate D2E/DX2                !
 ! A29   A(2,6,20)             110.0317         estimate D2E/DX2                !
 ! A30   A(2,6,21)             110.0141         estimate D2E/DX2                !
 ! A31   A(20,6,21)            108.8156         estimate D2E/DX2                !
 ! A32   A(1,7,3)              108.8554         estimate D2E/DX2                !
 ! A33   A(1,7,22)             109.5001         estimate D2E/DX2                !
 ! A34   A(1,7,23)             109.5745         estimate D2E/DX2                !
 ! A35   A(3,7,22)             110.0483         estimate D2E/DX2                !
 ! A36   A(3,7,23)             110.0259         estimate D2E/DX2                !
 ! A37   A(22,7,23)            108.8244         estimate D2E/DX2                !
 ! A38   A(4,8,10)             111.4916         estimate D2E/DX2                !
 ! A39   A(4,8,24)             109.8475         estimate D2E/DX2                !
 ! A40   A(4,8,25)             109.8886         estimate D2E/DX2                !
 ! A41   A(10,8,24)            109.2336         estimate D2E/DX2                !
 ! A42   A(10,8,25)            109.0547         estimate D2E/DX2                !
 ! A43   A(24,8,25)            107.2227         estimate D2E/DX2                !
 ! A44   A(5,9,11)             111.4937         estimate D2E/DX2                !
 ! A45   A(5,9,26)             109.8478         estimate D2E/DX2                !
 ! A46   A(5,9,27)             109.8892         estimate D2E/DX2                !
 ! A47   A(11,9,26)            109.2356         estimate D2E/DX2                !
 ! A48   A(11,9,27)            109.0539         estimate D2E/DX2                !
 ! A49   A(26,9,27)            107.2183         estimate D2E/DX2                !
 ! A50   A(8,10,28)            111.0143         estimate D2E/DX2                !
 ! A51   A(8,10,29)            110.9916         estimate D2E/DX2                !
 ! A52   A(8,10,30)            110.2563         estimate D2E/DX2                !
 ! A53   A(28,10,29)           108.3102         estimate D2E/DX2                !
 ! A54   A(28,10,30)           108.0782         estimate D2E/DX2                !
 ! A55   A(29,10,30)           108.0841         estimate D2E/DX2                !
 ! A56   A(9,11,31)            111.0128         estimate D2E/DX2                !
 ! A57   A(9,11,32)            110.9862         estimate D2E/DX2                !
 ! A58   A(9,11,33)            110.2613         estimate D2E/DX2                !
 ! A59   A(31,11,32)           108.3154         estimate D2E/DX2                !
 ! A60   A(31,11,33)           108.078          estimate D2E/DX2                !
 ! A61   A(32,11,33)           108.081          estimate D2E/DX2                !
 ! D1    D(7,1,6,2)           -179.9997         estimate D2E/DX2                !
 ! D2    D(7,1,6,20)           -59.6587         estimate D2E/DX2                !
 ! D3    D(7,1,6,21)            59.6384         estimate D2E/DX2                !
 ! D4    D(6,1,7,3)           -179.9994         estimate D2E/DX2                !
 ! D5    D(6,1,7,22)           -59.6529         estimate D2E/DX2                !
 ! D6    D(6,1,7,23)            59.6364         estimate D2E/DX2                !
 ! D7    D(6,2,4,8)           -178.2777         estimate D2E/DX2                !
 ! D8    D(6,2,4,16)            60.191          estimate D2E/DX2                !
 ! D9    D(6,2,4,17)           -57.0806         estimate D2E/DX2                !
 ! D10   D(12,2,4,8)            59.8461         estimate D2E/DX2                !
 ! D11   D(12,2,4,16)          -61.6852         estimate D2E/DX2                !
 ! D12   D(12,2,4,17)         -178.9569         estimate D2E/DX2                !
 ! D13   D(13,2,4,8)           -56.6805         estimate D2E/DX2                !
 ! D14   D(13,2,4,16)         -178.2118         estimate D2E/DX2                !
 ! D15   D(13,2,4,17)           64.5165         estimate D2E/DX2                !
 ! D16   D(4,2,6,1)            179.3715         estimate D2E/DX2                !
 ! D17   D(4,2,6,20)            59.3485         estimate D2E/DX2                !
 ! D18   D(4,2,6,21)           -60.5299         estimate D2E/DX2                !
 ! D19   D(12,2,6,1)           -58.2631         estimate D2E/DX2                !
 ! D20   D(12,2,6,20)         -178.2861         estimate D2E/DX2                !
 ! D21   D(12,2,6,21)           61.8355         estimate D2E/DX2                !
 ! D22   D(13,2,6,1)            57.1762         estimate D2E/DX2                !
 ! D23   D(13,2,6,20)          -62.8469         estimate D2E/DX2                !
 ! D24   D(13,2,6,21)          177.2747         estimate D2E/DX2                !
 ! D25   D(7,3,5,9)           -178.2818         estimate D2E/DX2                !
 ! D26   D(7,3,5,18)            60.1904         estimate D2E/DX2                !
 ! D27   D(7,3,5,19)           -57.0819         estimate D2E/DX2                !
 ! D28   D(14,3,5,9)            59.8398         estimate D2E/DX2                !
 ! D29   D(14,3,5,18)          -61.6881         estimate D2E/DX2                !
 ! D30   D(14,3,5,19)         -178.9603         estimate D2E/DX2                !
 ! D31   D(15,3,5,9)           -56.6933         estimate D2E/DX2                !
 ! D32   D(15,3,5,18)         -178.2212         estimate D2E/DX2                !
 ! D33   D(15,3,5,19)           64.5066         estimate D2E/DX2                !
 ! D34   D(5,3,7,1)            179.3679         estimate D2E/DX2                !
 ! D35   D(5,3,7,22)            59.3602         estimate D2E/DX2                !
 ! D36   D(5,3,7,23)           -60.547          estimate D2E/DX2                !
 ! D37   D(14,3,7,1)           -58.2659         estimate D2E/DX2                !
 ! D38   D(14,3,7,22)         -178.2735         estimate D2E/DX2                !
 ! D39   D(14,3,7,23)           61.8193         estimate D2E/DX2                !
 ! D40   D(15,3,7,1)            57.1805         estimate D2E/DX2                !
 ! D41   D(15,3,7,22)          -62.8272         estimate D2E/DX2                !
 ! D42   D(15,3,7,23)          177.2657         estimate D2E/DX2                !
 ! D43   D(2,4,8,10)           178.6099         estimate D2E/DX2                !
 ! D44   D(2,4,8,24)           -60.1572         estimate D2E/DX2                !
 ! D45   D(2,4,8,25)            57.5747         estimate D2E/DX2                !
 ! D46   D(16,4,8,10)          -59.8583         estimate D2E/DX2                !
 ! D47   D(16,4,8,24)           61.3746         estimate D2E/DX2                !
 ! D48   D(16,4,8,25)          179.1066         estimate D2E/DX2                !
 ! D49   D(17,4,8,10)           57.3874         estimate D2E/DX2                !
 ! D50   D(17,4,8,24)          178.6203         estimate D2E/DX2                !
 ! D51   D(17,4,8,25)          -63.6478         estimate D2E/DX2                !
 ! D52   D(3,5,9,11)           178.614          estimate D2E/DX2                !
 ! D53   D(3,5,9,26)           -60.149          estimate D2E/DX2                !
 ! D54   D(3,5,9,27)            57.5781         estimate D2E/DX2                !
 ! D55   D(18,5,9,11)          -59.8584         estimate D2E/DX2                !
 ! D56   D(18,5,9,26)           61.3786         estimate D2E/DX2                !
 ! D57   D(18,5,9,27)          179.1057         estimate D2E/DX2                !
 ! D58   D(19,5,9,11)           57.3841         estimate D2E/DX2                !
 ! D59   D(19,5,9,26)          178.6211         estimate D2E/DX2                !
 ! D60   D(19,5,9,27)          -63.6518         estimate D2E/DX2                !
 ! D61   D(4,8,10,28)          -60.334          estimate D2E/DX2                !
 ! D62   D(4,8,10,29)           60.1877         estimate D2E/DX2                !
 ! D63   D(4,8,10,30)          179.9233         estimate D2E/DX2                !
 ! D64   D(24,8,10,28)         178.0764         estimate D2E/DX2                !
 ! D65   D(24,8,10,29)         -61.4019         estimate D2E/DX2                !
 ! D66   D(24,8,10,30)          58.3336         estimate D2E/DX2                !
 ! D67   D(25,8,10,28)          61.1866         estimate D2E/DX2                !
 ! D68   D(25,8,10,29)        -178.2917         estimate D2E/DX2                !
 ! D69   D(25,8,10,30)         -58.5562         estimate D2E/DX2                !
 ! D70   D(5,9,11,31)          -60.3391         estimate D2E/DX2                !
 ! D71   D(5,9,11,32)           60.1847         estimate D2E/DX2                !
 ! D72   D(5,9,11,33)          179.9161         estimate D2E/DX2                !
 ! D73   D(26,9,11,31)         178.0681         estimate D2E/DX2                !
 ! D74   D(26,9,11,32)         -61.4081         estimate D2E/DX2                !
 ! D75   D(26,9,11,33)          58.3233         estimate D2E/DX2                !
 ! D76   D(27,9,11,31)          61.183          estimate D2E/DX2                !
 ! D77   D(27,9,11,32)        -178.2932         estimate D2E/DX2                !
 ! D78   D(27,9,11,33)         -58.5618         estimate D2E/DX2                !
 --------------------------------------------------------------------------------
 Trust Radius=3.00D-01 FncErr=1.00D-07 GrdErr=1.00D-06 EigMax=2.50D+02 EigMin=1.00D-04
 Number of steps in this run=    181 maximum allowed number of steps=    198.
 GradGradGradGradGradGradGradGradGradGradGradGradGradGradGradGradGradGrad

                          Input orientation:                          
 ---------------------------------------------------------------------
 Center     Atomic      Atomic             Coordinates (Angstroms)
 Number     Number       Type             X           Y           Z
 ---------------------------------------------------------------------
      1          8           0        0.000200   -0.302800    0.000000
      2          6           0        2.391800   -0.417900    0.029100
      3          6           0       -2.391800   -0.417800   -0.029100
      4          6           0        3.695100    0.377900    0.029400
      5          6           0       -3.695100    0.378000   -0.029300
      6          6           0        1.174800    0.496300    0.014300
      7          6           0       -1.175000    0.496600   -0.014300
      8          6           0        4.911500   -0.547100    0.001500
      9          6           0       -4.911500   -0.547100   -0.001500
     10          6           0        6.210700    0.242000   -0.032600
     11          6           0       -6.210800    0.241900    0.032600
     12          1           0        2.345800   -1.072200    0.908700
     13          1           0        2.353700   -1.083800   -0.842200
     14          1           0       -2.345800   -1.072100   -0.908700
     15          1           0       -2.353600   -1.083600    0.842200
     16          1           0        3.737400    1.016200    0.920300
     17          1           0        3.719800    1.040800   -0.844300
     18          1           0       -3.737400    1.016300   -0.920100
     19          1           0       -3.719900    1.040800    0.844300
     20          1           0        1.194900    1.133900   -0.877300
     21          1           0        1.174200    1.134700    0.905600
     22          1           0       -1.194800    1.134100    0.877300
     23          1           0       -1.174200    1.134900   -0.905600
     24          1           0        4.906100   -1.195800    0.885100
     25          1           0        4.864900   -1.198000   -0.879300
     26          1           0       -4.906000   -1.195800   -0.885100
     27          1           0       -4.864900   -1.198100    0.879300
     28          1           0        6.261700    0.875900   -0.923600
     29          1           0        6.304100    0.882000    0.850600
     30          1           0        7.067300   -0.439000   -0.050800
     31          1           0       -6.261900    0.875600    0.923600
     32          1           0       -6.304100    0.881900   -0.850500
     33          1           0       -7.067400   -0.439100    0.050600
 ---------------------------------------------------------------------
                    Distance matrix (angstroms):
                    1          2          3          4          5
     1  O    0.000000
     2  C    2.394545   0.000000
     3  C    2.394940   4.783954   0.000000
     4  C    3.757193   1.527052   6.138967   0.000000
     5  C    3.757604   6.138992   1.527052   7.390433   0.000000
     6  C    1.420722   1.522192   3.682132   2.523125   4.871532
     7  C    1.421387   3.682425   1.522153   4.871742   2.522934
     8  C    4.917373   2.523161   7.304509   1.528408   8.656230
     9  C    4.917772   7.304507   2.523166   8.656220   1.528467
    10  C    6.234435   3.875987   8.627766   2.520031   9.906734
    11  C    6.234924   8.627866   3.876051   9.906834   2.520139
    12  H    2.630504   1.097233   4.873660   2.167157   6.282945
    13  H    2.618821   1.097287   4.860500   2.166935   6.275799
    14  H    2.630831   4.873633   1.097233   6.282914   2.167197
    15  H    2.619031   4.860361   1.097229   6.275619   2.166889
    16  H    4.068584   2.159055   6.365910   1.096777   7.520046
    17  H    4.043950   2.157363   6.335907   1.096995   7.488943
    18  H    4.068939   6.365925   2.158973   7.520051   1.096695
    19  H    4.044409   6.336027   2.157357   7.489040   1.096857
    20  H    2.064236   2.159216   3.998954   2.764894   5.020218
    21  H    2.065138   2.159020   4.000035   2.774060   5.015647
    22  H    2.064549   3.998981   2.159343   5.020149   2.764979
    23  H    2.065504   4.000151   2.159092   5.015711   2.774119
    24  H    5.064455   2.767593   7.395971   2.162238   8.791679
    25  H    5.023929   2.747721   7.347874   2.162783   8.745277
    26  H    5.064746   7.395862   2.767530   8.791573   2.162295
    27  H    5.024334   7.347874   2.747778   8.745268   2.162886
    28  H    6.438071   4.190189   8.795274   2.782741  10.009273
    29  H    6.470427   4.203652   8.836404   2.781253  10.050485
    30  H    7.068595   4.676230   9.459149   3.470661  10.793387
    31  H    6.438599   8.795442   4.190250  10.009453   2.782820
    32  H    6.470785   8.836394   4.203571  10.050485   2.781217
    33  H    7.069095   9.459248   4.676328  10.793486   3.470799
                    6          7          8          9         10
     6  C    0.000000
     7  C    2.349974   0.000000
     8  C    3.879662   6.175358   0.000000
     9  C    6.175110   3.879550   9.823000   0.000000
    10  C    5.042535   7.390110   1.520448  11.150201   0.000000
    11  C    7.390003   5.042455  11.150294   1.520482  12.421671
    12  H    2.152065   3.963470   2.771562   7.332980   4.189346
    13  H    2.149445   3.954087   2.746310   7.333345   4.158082
    14  H    3.963134   2.152102   7.332973   2.771543   8.701040
    15  H    3.953620   2.149354   7.333232   2.746364   8.710323
    16  H    2.767318   5.027438   2.160234   8.837256   2.761271
    17  H    2.740565   4.994409   2.157997   8.816523   2.738890
    18  H    5.027247   2.767030   8.837253   2.160221  10.017579
    19  H    4.994344   2.740413   8.816621   2.157942  10.001192
    20  H    1.096307   2.601412   4.172669   6.393818   5.164035
    21  H    1.096344   2.602331   4.196815   6.378638   5.200333
    22  H    2.601262   1.096243   6.393775   4.172839   7.514332
    23  H    2.602273   1.096286   6.378691   4.196896   7.489736
    24  H    4.188567   6.375964   1.096171   9.878873   2.147422
    25  H    4.157645   6.332479   1.096198   9.837286   2.145152
    26  H    6.375598   4.188421   9.878774   1.096171  11.241666
    27  H    6.332234   4.157630   9.837293   1.096258  11.205997
    28  H    5.186550   7.501680   2.168820  11.301132   1.094674
    29  H    5.211322   7.538801   2.168555  11.338346   1.094699
    30  H    5.966622   8.295311   2.159142  11.979389   1.094466
    31  H    7.501680   5.186506  11.301292   2.168747  12.525235
    32  H    7.538601   5.211080  11.338326   2.168450  12.557812
    33  H    8.295188   5.966584  11.979487   2.159232  13.295817
                   11         12         13         14         15
    11  C    0.000000
    12  H    8.701139   0.000000
    13  H    8.710535   1.750956   0.000000
    14  H    4.189375   5.031307   4.699985   0.000000
    15  H    4.158172   4.699884   4.999588   1.750955   0.000000
    16  H   10.017696   2.509601   3.070999   6.686670   6.443255
    17  H   10.001200   3.070123   2.525898   6.423395   6.651582
    18  H    2.761348   6.686678   6.443445   2.509601   3.070860
    19  H    2.738920   6.423522   6.651829   3.070099   2.525838
    20  H    7.514518   3.062882   2.502447   4.171808   4.523919
    21  H    7.489823   2.498612   3.060681   4.533437   4.167763
    22  H    5.164281   4.171881   4.524115   3.062991   2.502447
    23  H    5.200481   4.533583   4.168060   2.498701   3.060642
    24  H   11.241851   2.563390   3.083967   7.471484   7.260694
    25  H   11.206070   3.091704   2.514069   7.211859   7.421819
    26  H    2.147477   7.471385   7.260691   2.563295   3.083975
    27  H    2.145215   7.211859   7.421914   3.091712   2.514183
    28  H   12.525156   4.742013   4.372587   8.825190   9.010055
    29  H   12.557929   4.414795   4.726056   9.040709   8.878030
    30  H   13.295808   4.859439   4.822873   9.473292   9.485057
    31  H    1.094563   8.825341   9.010320   4.742014   4.372631
    32  H    1.094610   9.040689   8.878150   4.414707   4.725979
    33  H    1.094463   9.473409   9.485244   4.859470   4.823061
                   16         17         18         19         20
    16  H    0.000000
    17  H    1.764859   0.000000
    18  H    7.698033   7.457625   0.000000
    19  H    7.457728   7.628926   1.764657   0.000000
    20  H    3.116011   2.526831   4.933887   5.208439   0.000000
    21  H    2.565980   3.090477   5.241280   4.895385   1.783020
    22  H    4.933796   5.208254   3.115981   2.527039   2.964673
    23  H    5.241356   4.895288   2.565983   3.090565   2.369269
    24  H    2.502008   3.066025   9.102869   8.911337   4.722982
    25  H    3.067979   2.514897   8.882812   9.037799   4.348179
    26  H    9.102790   8.911143   2.502047   3.065948   6.530585
    27  H    8.882813   9.037729   3.068007   2.514940   6.726444
    28  H    3.129176   2.548477  10.000086  10.138294   5.073576
    29  H    2.571151   3.094594  10.197310  10.025260   5.399353
    30  H    3.761499   3.745024  10.936870  10.924957   6.135324
    31  H   10.000289  10.138397   3.129237   2.548596   7.675534
    32  H   10.197328  10.025161   2.571159   3.094461   7.503281
    33  H   10.937000  10.924955   3.761562   3.745106   8.461733
                   21         22         23         24         25
    21  H    0.000000
    22  H    2.369169   0.000000
    23  H    2.965709   1.783019   0.000000
    24  H    4.399855   6.530657   6.753430   0.000000
    25  H    4.716845   6.726388   6.474090   1.764882   0.000000
    26  H    6.753271   4.723081   4.399877   9.970502   9.770902
    27  H    6.474054   4.348424   4.716993   9.771002   9.887451
    28  H    5.412542   7.675239   7.440431   3.066103   2.500815
    29  H    5.136415   7.503184   7.685907   2.504565   3.064352
    30  H    6.174128   8.461578   8.433870   2.473750   2.472460
    31  H    7.440634   5.073901   5.412753  11.358539  11.461062
    32  H    7.685881   5.399430   5.136431  11.532464  11.361046
    33  H    8.433970   6.135619   6.174269  12.026375  11.992515
                   26         27         28         29         30
    26  H    0.000000
    27  H    1.764880   0.000000
    28  H   11.358299  11.460940   0.000000
    29  H   11.532400  11.361083   1.774717   0.000000
    30  H   12.026168  11.992444   1.771929   1.772015   0.000000
    31  H    3.066033   2.500761  12.659096  12.566214  13.429267
    32  H    2.504539   3.064295  12.566014  12.722439  13.460261
    33  H    2.473819   2.472616  13.429192  13.460398  14.135064
                   31         32         33
    31  H    0.000000
    32  H    1.774613   0.000000
    33  H    1.771834   1.771905   0.000000
 Stoichiometry    C10H22O
 Framework group  C1[X(C10H22O)]
 Deg. of freedom    93
 Full point group                 C1      NOp   1
 Largest Abelian subgroup         C1      NOp   1
 Largest concise Abelian subgroup C1      NOp   1
                         Standard orientation:                         
 ---------------------------------------------------------------------
 Center     Atomic      Atomic             Coordinates (Angstroms)
 Number     Number       Type             X           Y           Z
 ---------------------------------------------------------------------
      1          8           0       -0.000204    0.320400   -0.000004
      2          6           0       -2.391793    0.435497    0.029950
      3          6           0        2.391786    0.435403   -0.029956
      4          6           0       -3.695092   -0.360304    0.030706
      5          6           0        3.695086   -0.360396   -0.030630
      6          6           0       -1.174798   -0.478701    0.014706
      7          6           0        1.174992   -0.478999   -0.014732
      8          6           0       -4.911503    0.564695    0.003250
      9          6           0        4.911495    0.564705   -0.003253
     10          6           0       -6.210714   -0.224406   -0.030395
     11          6           0        6.210808   -0.224294    0.030375
     12          1           0       -2.345480    1.089788    0.909541
     13          1           0       -2.354005    1.101407   -0.841356
     14          1           0        2.345471    1.089712   -0.909533
     15          1           0        2.353896    1.101193    0.841365
     16          1           0       -3.737074   -0.998614    0.921614
     17          1           0       -3.720103   -1.023195   -0.842992
     18          1           0        3.737069   -0.998686   -0.921451
     19          1           0        3.720199   -1.023205    0.842954
     20          1           0       -1.195215   -1.116292   -0.876894
     21          1           0       -1.173879   -1.117111    0.905999
     22          1           0        1.195111   -1.116508    0.876854
     23          1           0        1.173875   -1.117289   -0.906039
     24          1           0       -4.905789    1.213385    0.886855
     25          1           0       -4.865218    1.215604   -0.877560
     26          1           0        4.905679    1.213415   -0.886844
     27          1           0        4.865209    1.215696    0.877570
     28          1           0       -6.262031   -0.858297   -0.921384
     29          1           0       -6.303799   -0.864416    0.852831
     30          1           0       -7.067321    0.456593   -0.048282
     31          1           0        6.262227   -0.858003    0.921350
     32          1           0        6.303794   -0.864284   -0.852765
     33          1           0        7.067414    0.456707    0.048077
 ---------------------------------------------------------------------
 Rotational constants (GHZ):           8.0434458           0.2055508           0.2029781
 Standard basis: 6-311++G(d,p) (5D, 7F)
 There are   407 symmetry adapted cartesian basis functions of A   symmetry.
 There are   396 symmetry adapted basis functions of A   symmetry.
   396 basis functions,   594 primitive gaussians,   407 cartesian basis functions
    45 alpha electrons       45 beta electrons
       nuclear repulsion energy       605.2413796877 Hartrees.
 NAtoms=   33 NActive=   33 NUniq=   33 SFac= 1.00D+00 NAtFMM=   60 NAOKFM=F Big=F
 Integral buffers will be    131072 words long.
 Raffenetti 2 integral format.
 Two-electron integral symmetry is turned on.
 R6APFD:  NTU= -4 IXU= 1 FactS= 1.050
 Nuclear repulsion after empirical dispersion term =      605.2212010155 Hartrees.
 One-electron integrals computed using PRISM.
 NBasis=   396 RedAO= T EigKep=  3.26D-06  NBF=   396
 NBsUse=   396 1.00D-06 EigRej= -1.00D+00 NBFU=   396
 ExpMin= 3.60D-02 ExpMax= 8.59D+03 ExpMxC= 1.30D+03 IAcc=3 IRadAn=         5 AccDes= 0.00D+00
 Harris functional with IExCor= 1009 and IRadAn=       5 diagonalized for initial guess.
 HarFok:  IExCor= 1009 AccDes= 0.00D+00 IRadAn=         5 IDoV= 1 UseB2=F ITyADJ=14
 ICtDFT=  3500011 ScaDFX=  1.000000  1.000000  1.000000  1.000000
 FoFCou: FMM=F IPFlag=           0 FMFlag=      100000 FMFlg1=           0
         NFxFlg=           0 DoJE=T BraDBF=F KetDBF=T FulRan=T
         wScrn=  0.000000 ICntrl=       500 IOpCl=  0 I1Cent=   200000004 NGrid=           0
         NMat0=    1 NMatS0=      1 NMatT0=    0 NMatD0=    1 NMtDS0=    0 NMtDT0=    0
 Petite list used in FoFCou.
 Requested convergence on RMS density matrix=1.00D-08 within  32 cycles.
 Requested convergence on MAX density matrix=1.00D-06.
 Requested convergence on             energy=1.00D-06.
 No special actions if energy rises.
 SCF Done:  E(RM08HX) =  -469.562220631     A.U. after   12 cycles
            NFock= 12  Conv=0.37D-08     -V/T= 2.0054
 QCSCF skips out because SCF is already converged.

 **********************************************************************

            Population analysis using the SCF Density.

 **********************************************************************

 Orbital symmetries:
       Occupied  (A) (A) (A) (A) (A) (A) (A) (A) (A) (A) (A) (A)
                 (A) (A) (A) (A) (A) (A) (A) (A) (A) (A) (A) (A)
                 (A) (A) (A) (A) (A) (A) (A) (A) (A) (A) (A) (A)
                 (A) (A) (A) (A) (A) (A) (A) (A) (A)
       Virtual   (A) (A) (A) (A) (A) (A) (A) (A) (A) (A) (A) (A)
                 (A) (A) (A) (A) (A) (A) (A) (A) (A) (A) (A) (A)
                 (A) (A) (A) (A) (A) (A) (A) (A) (A) (A) (A) (A)
                 (A) (A) (A) (A) (A) (A) (A) (A) (A) (A) (A) (A)
                 (A) (A) (A) (A) (A) (A) (A) (A) (A) (A) (A) (A)
                 (A) (A) (A) (A) (A) (A) (A) (A) (A) (A) (A) (A)
                 (A) (A) (A) (A) (A) (A) (A) (A) (A) (A) (A) (A)
                 (A) (A) (A) (A) (A) (A) (A) (A) (A) (A) (A) (A)
                 (A) (A) (A) (A) (A) (A) (A) (A) (A) (A) (A) (A)
                 (A) (A) (A) (A) (A) (A) (A) (A) (A) (A) (A) (A)
                 (A) (A) (A) (A) (A) (A) (A) (A) (A) (A) (A) (A)
                 (A) (A) (A) (A) (A) (A) (A) (A) (A) (A) (A) (A)
                 (A) (A) (A) (A) (A) (A) (A) (A) (A) (A) (A) (A)
                 (A) (A) (A) (A) (A) (A) (A) (A) (A) (A) (A) (A)
                 (A) (A) (A) (A) (A) (A) (A) (A) (A) (A) (A) (A)
                 (A) (A) (A) (A) (A) (A) (A) (A) (A) (A) (A) (A)
                 (A) (A) (A) (A) (A) (A) (A) (A) (A) (A) (A) (A)
                 (A) (A) (A) (A) (A) (A) (A) (A) (A) (A) (A) (A)
                 (A) (A) (A) (A) (A) (A) (A) (A) (A) (A) (A) (A)
                 (A) (A) (A) (A) (A) (A) (A) (A) (A) (A) (A) (A)
                 (A) (A) (A) (A) (A) (A) (A) (A) (A) (A) (A) (A)
                 (A) (A) (A) (A) (A) (A) (A) (A) (A) (A) (A) (A)
                 (A) (A) (A) (A) (A) (A) (A) (A) (A) (A) (A) (A)
                 (A) (A) (A) (A) (A) (A) (A) (A) (A) (A) (A) (A)
                 (A) (A) (A) (A) (A) (A) (A) (A) (A) (A) (A) (A)
                 (A) (A) (A) (A) (A) (A) (A) (A) (A) (A) (A) (A)
                 (A) (A) (A) (A) (A) (A) (A) (A) (A) (A) (A) (A)
                 (A) (A) (A) (A) (A) (A) (A) (A) (A) (A) (A) (A)
                 (A) (A) (A) (A) (A) (A) (A) (A) (A) (A) (A) (A)
                 (A) (A) (A)
 The electronic state is 1-A.
 Alpha  occ. eigenvalues --  -19.60576 -10.56867 -10.56860 -10.52239 -10.52238
 Alpha  occ. eigenvalues --  -10.52097 -10.52094 -10.51887 -10.51883 -10.51186
 Alpha  occ. eigenvalues --  -10.51186  -1.14959  -0.91814  -0.90858  -0.86634
 Alpha  occ. eigenvalues --   -0.83901  -0.78082  -0.74270  -0.68575  -0.68509
 Alpha  occ. eigenvalues --   -0.66512  -0.66196  -0.57752  -0.55962  -0.55507
 Alpha  occ. eigenvalues --   -0.53653  -0.51690  -0.50732  -0.49614  -0.48798
 Alpha  occ. eigenvalues --   -0.47173  -0.46644  -0.44658  -0.44540  -0.42336
 Alpha  occ. eigenvalues --   -0.40955  -0.40180  -0.39924  -0.39763  -0.39690
 Alpha  occ. eigenvalues --   -0.38739  -0.38530  -0.37991  -0.36936  -0.33013
 Alpha virt. eigenvalues --   -0.02818  -0.02196  -0.01558  -0.01412  -0.00991
 Alpha virt. eigenvalues --   -0.00518  -0.00401   0.00309   0.01240   0.01481
 Alpha virt. eigenvalues --    0.02213   0.02267   0.03033   0.03100   0.03333
 Alpha virt. eigenvalues --    0.03713   0.04462   0.04614   0.05084   0.05489
 Alpha virt. eigenvalues --    0.06457   0.06653   0.07460   0.07494   0.08260
 Alpha virt. eigenvalues --    0.09090   0.10022   0.10116   0.10497   0.10660
 Alpha virt. eigenvalues --    0.11827   0.11915   0.12218   0.12419   0.12466
 Alpha virt. eigenvalues --    0.12503   0.12641   0.12970   0.13438   0.13963
 Alpha virt. eigenvalues --    0.14132   0.14272   0.14517   0.14629   0.15107
 Alpha virt. eigenvalues --    0.15116   0.15539   0.16052   0.16695   0.17072
 Alpha virt. eigenvalues --    0.17454   0.17723   0.17930   0.18347   0.19179
 Alpha virt. eigenvalues --    0.19564   0.19689   0.20245   0.21026   0.21164
 Alpha virt. eigenvalues --    0.21420   0.22095   0.22449   0.23281   0.23544
 Alpha virt. eigenvalues --    0.23565   0.24374   0.24416   0.25128   0.26023
 Alpha virt. eigenvalues --    0.26414   0.26748   0.26808   0.27388   0.28426
 Alpha virt. eigenvalues --    0.29817   0.29829   0.30665   0.31110   0.31601
 Alpha virt. eigenvalues --    0.32133   0.32315   0.32558   0.33703   0.33861
 Alpha virt. eigenvalues --    0.33940   0.34552   0.35558   0.35632   0.35980
 Alpha virt. eigenvalues --    0.36066   0.36786   0.37865   0.39851   0.40244
 Alpha virt. eigenvalues --    0.41058   0.42844   0.44874   0.46045   0.46215
 Alpha virt. eigenvalues --    0.46528   0.46704   0.47027   0.48476   0.49863
 Alpha virt. eigenvalues --    0.49889   0.52533   0.54778   0.56146   0.56948
 Alpha virt. eigenvalues --    0.57843   0.58488   0.61400   0.61523   0.62059
 Alpha virt. eigenvalues --    0.67124   0.67554   0.67878   0.68007   0.68196
 Alpha virt. eigenvalues --    0.68693   0.69229   0.69238   0.69376   0.69609
 Alpha virt. eigenvalues --    0.70560   0.71532   0.72008   0.72607   0.72758
 Alpha virt. eigenvalues --    0.72915   0.72970   0.73470   0.73547   0.75154
 Alpha virt. eigenvalues --    0.75514   0.76701   0.77437   0.77446   0.77614
 Alpha virt. eigenvalues --    0.77716   0.78794   0.79023   0.79478   0.80203
 Alpha virt. eigenvalues --    0.80935   0.81183   0.82652   0.83703   0.89112
 Alpha virt. eigenvalues --    0.90480   0.98369   0.98460   1.00264   1.01334
 Alpha virt. eigenvalues --    1.02334   1.03337   1.04073   1.05748   1.06479
 Alpha virt. eigenvalues --    1.07037   1.10534   1.13105   1.14904   1.19871
 Alpha virt. eigenvalues --    1.21517   1.21849   1.22117   1.27889   1.29326
 Alpha virt. eigenvalues --    1.29710   1.30304   1.31275   1.31548   1.31995
 Alpha virt. eigenvalues --    1.32487   1.33423   1.42362   1.47460   1.49590
 Alpha virt. eigenvalues --    1.49688   1.50626   1.51403   1.54198   1.55436
 Alpha virt. eigenvalues --    1.58000   1.58473   1.58916   1.59018   1.59630
 Alpha virt. eigenvalues --    1.59820   1.60992   1.61345   1.62484   1.62691
 Alpha virt. eigenvalues --    1.62832   1.64331   1.64718   1.65162   1.66442
 Alpha virt. eigenvalues --    1.66669   1.67743   1.68738   1.69419   1.69943
 Alpha virt. eigenvalues --    1.70655   1.71109   1.73090   1.75023   1.75262
 Alpha virt. eigenvalues --    1.76395   1.76754   1.76897   1.77020   1.79169
 Alpha virt. eigenvalues --    1.79584   1.79969   1.80588   1.82157   1.82274
 Alpha virt. eigenvalues --    1.88337   1.88841   1.89151   1.91342   1.91764
 Alpha virt. eigenvalues --    1.92540   1.93047   2.00975   2.01875   2.03087
 Alpha virt. eigenvalues --    2.03979   2.06737   2.09262   2.09281   2.14315
 Alpha virt. eigenvalues --    2.15448   2.17293   2.19172   2.19378   2.19856
 Alpha virt. eigenvalues --    2.22400   2.23326   2.23743   2.25747   2.26171
 Alpha virt. eigenvalues --    2.30354   2.31498   2.32449   2.32476   2.35384
 Alpha virt. eigenvalues --    2.38885   2.39406   2.41504   2.42340   2.42754
 Alpha virt. eigenvalues --    2.42945   2.45205   2.45796   2.49032   2.49800
 Alpha virt. eigenvalues --    2.51327   2.51426   2.51855   2.53552   2.54091
 Alpha virt. eigenvalues --    2.54501   2.55290   2.57401   2.58318   2.59331
 Alpha virt. eigenvalues --    2.61265   2.61641   2.62162   2.63268   2.63740
 Alpha virt. eigenvalues --    2.65279   2.65608   2.66172   2.66962   2.67516
 Alpha virt. eigenvalues --    2.68698   2.69261   2.72920   2.73399   2.74925
 Alpha virt. eigenvalues --    2.76501   2.76524   2.77482   2.78108   2.79463
 Alpha virt. eigenvalues --    2.80798   2.81344   2.83081   2.83580   2.84248
 Alpha virt. eigenvalues --    2.88737   2.89544   2.92143   2.92201   2.94003
 Alpha virt. eigenvalues --    2.94589   2.97237   3.02552   3.09465   3.11496
 Alpha virt. eigenvalues --    3.14416   3.19860   3.22596   3.24830   3.30399
 Alpha virt. eigenvalues --    3.31535   3.40047   3.41328   3.52381   3.53801
 Alpha virt. eigenvalues --    3.81479   3.81615   3.82130   3.82370   3.84849
 Alpha virt. eigenvalues --    3.85031   3.85275   3.85602   3.86983   3.88087
 Alpha virt. eigenvalues --    3.93888   3.94298   4.07824   4.14790   4.15736
 Alpha virt. eigenvalues --    4.18909   4.23631   4.25862   4.34913   4.38181
 Alpha virt. eigenvalues --    4.43140   4.44936   5.24105   5.54424   5.82758
 Alpha virt. eigenvalues --   23.93368  23.93870  23.94645  23.95034  23.97405
 Alpha virt. eigenvalues --   23.97712  23.97742  23.98235  24.04332  24.04424
 Alpha virt. eigenvalues --   49.97952
          Condensed to atoms (all electrons):
               1          2          3          4          5          6
     1  O    8.173050  -0.035609  -0.035246  -0.005513  -0.005474   0.052864
     2  C   -0.035609   8.066697  -0.106053  -1.208429   0.023563  -1.158463
     3  C   -0.035246  -0.106053   8.065945   0.023950  -1.209276  -0.088713
     4  C   -0.005513  -1.208429   0.023950   8.279762  -0.086100   0.506654
     5  C   -0.005474   0.023563  -1.209276  -0.086100   8.280477  -1.032231
     6  C    0.052864  -1.158463  -0.088713   0.506654  -1.032231   9.681948
     7  C    0.053102  -0.090853  -1.159069  -1.031939   0.506810  -1.685591
     8  C   -0.004368   0.230470   0.009777  -0.967865  -0.003780  -0.312664
     9  C   -0.004365   0.009766   0.229573  -0.003786  -0.967042  -0.099969
    10  C   -0.000498  -0.267315   0.001162   0.371188  -0.000473  -0.221373
    11  C   -0.000498   0.001156  -0.267417  -0.000472   0.371328  -0.033578
    12  H    0.001963   0.518996  -0.002462  -0.090261   0.001427  -0.091924
    13  H    0.002869   0.555690  -0.005551  -0.145730   0.003837  -0.114893
    14  H    0.001947  -0.002450   0.518978   0.001418  -0.090251   0.019845
    15  H    0.002860  -0.005534   0.555831   0.003826  -0.145771   0.058082
    16  H   -0.001262  -0.072542  -0.002335   0.461577  -0.000191   0.027426
    17  H   -0.001027  -0.107500  -0.001072   0.519375  -0.000834   0.009117
    18  H   -0.001258  -0.002339  -0.072467  -0.000189   0.461543   0.005739
    19  H   -0.001024  -0.001075  -0.107509  -0.000833   0.519321  -0.016629
    20  H   -0.056698  -0.051342   0.027138  -0.048918   0.004067   0.362563
    21  H   -0.052411  -0.039483   0.027304  -0.077198   0.011143   0.330496
    22  H   -0.056658   0.027200  -0.051282   0.004045  -0.048865   0.058426
    23  H   -0.052347   0.027360  -0.039421   0.011109  -0.077184   0.094715
    24  H    0.000799  -0.003499   0.000343  -0.064359  -0.000070  -0.011421
    25  H    0.000621   0.001139   0.000187  -0.060096   0.000001   0.004951
    26  H    0.000799   0.000343  -0.003507  -0.000070  -0.064372  -0.002804
    27  H    0.000621   0.000186   0.001183   0.000001  -0.060136   0.000473
    28  H    0.000085   0.000699   0.000041  -0.055075   0.000008  -0.001430
    29  H    0.000064  -0.000123   0.000039  -0.034115   0.000020   0.006541
    30  H   -0.000190  -0.001281   0.000025   0.065885  -0.000016  -0.001793
    31  H    0.000085   0.000042   0.000695   0.000008  -0.055064   0.000352
    32  H    0.000063   0.000040  -0.000123   0.000020  -0.034145   0.001037
    33  H   -0.000190   0.000024  -0.001275  -0.000016   0.065893  -0.000937
               7          8          9         10         11         12
     1  O    0.053102  -0.004368  -0.004365  -0.000498  -0.000498   0.001963
     2  C   -0.090853   0.230470   0.009766  -0.267315   0.001156   0.518996
     3  C   -1.159069   0.009777   0.229573   0.001162  -0.267417  -0.002462
     4  C   -1.031939  -0.967865  -0.003786   0.371188  -0.000472  -0.090261
     5  C    0.506810  -0.003780  -0.967042  -0.000473   0.371328   0.001427
     6  C   -1.685591  -0.312664  -0.099969  -0.221373  -0.033578  -0.091924
     7  C    9.682962  -0.099770  -0.312664  -0.033594  -0.221309   0.019896
     8  C   -0.099770   7.054271  -0.000005  -0.370920   0.000002  -0.003162
     9  C   -0.312664  -0.000005   7.054398   0.000002  -0.370809  -0.000233
    10  C   -0.033594  -0.370920   0.000002   6.310435   0.000001  -0.001974
    11  C   -0.221309   0.000002  -0.370809   0.000001   6.310295  -0.000007
    12  H    0.019896  -0.003162  -0.000233  -0.001974  -0.000007   0.523959
    13  H    0.058107   0.001627  -0.000185  -0.006872   0.000000  -0.076350
    14  H   -0.091881  -0.000234  -0.003138  -0.000007  -0.001976  -0.000985
    15  H   -0.114922  -0.000186   0.001593   0.000000  -0.006866   0.000861
    16  H    0.005714  -0.055072  -0.000051   0.011593  -0.000017  -0.022744
    17  H   -0.016634  -0.050327  -0.000069   0.020219  -0.000018   0.012269
    18  H    0.027406  -0.000051  -0.055113  -0.000017   0.011583   0.000153
    19  H    0.009133  -0.000068  -0.050279  -0.000018   0.020211  -0.000267
    20  H    0.058634  -0.020187   0.001433  -0.004760   0.000465   0.021946
    21  H    0.094861  -0.015965   0.001555  -0.006865   0.000629  -0.035209
    22  H    0.362674   0.001433  -0.020176   0.000466  -0.004759  -0.003382
    23  H    0.330577   0.001552  -0.015977   0.000629  -0.006859   0.003140
    24  H   -0.002810   0.484504   0.000010  -0.055364   0.000000  -0.001603
    25  H    0.000466   0.463920   0.000009  -0.063176   0.000000   0.002462
    26  H   -0.011386   0.000010   0.484485   0.000000  -0.055362  -0.000041
    27  H    0.004934   0.000009   0.463929   0.000000  -0.063173   0.000072
    28  H    0.000352   0.008938   0.000001   0.400013   0.000000  -0.000342
    29  H    0.001040  -0.010182   0.000001   0.391572   0.000000   0.001736
    30  H   -0.000936  -0.086210  -0.000001   0.386759  -0.000000  -0.000289
    31  H   -0.001423   0.000001   0.008936   0.000000   0.400009  -0.000003
    32  H    0.006518   0.000001  -0.010145   0.000000   0.391583   0.000003
    33  H   -0.001794  -0.000001  -0.086206  -0.000000   0.386753  -0.000001
              13         14         15         16         17         18
     1  O    0.002869   0.001947   0.002860  -0.001262  -0.001027  -0.001258
     2  C    0.555690  -0.002450  -0.005534  -0.072542  -0.107500  -0.002339
     3  C   -0.005551   0.518978   0.555831  -0.002335  -0.001072  -0.072467
     4  C   -0.145730   0.001418   0.003826   0.461577   0.519375  -0.000189
     5  C    0.003837  -0.090251  -0.145771  -0.000191  -0.000834   0.461543
     6  C   -0.114893   0.019845   0.058082   0.027426   0.009117   0.005739
     7  C    0.058107  -0.091881  -0.114922   0.005714  -0.016634   0.027406
     8  C    0.001627  -0.000234  -0.000186  -0.055072  -0.050327  -0.000051
     9  C   -0.000185  -0.003138   0.001593  -0.000051  -0.000069  -0.055113
    10  C   -0.006872  -0.000007   0.000000   0.011593   0.020219  -0.000017
    11  C    0.000000  -0.001976  -0.006866  -0.000017  -0.000018   0.011583
    12  H   -0.076350  -0.000985   0.000861  -0.022744   0.012269   0.000153
    13  H    0.525375   0.000860  -0.000911   0.011181  -0.021820  -0.000195
    14  H    0.000860   0.523828  -0.076283   0.000153  -0.000266  -0.022725
    15  H   -0.000911  -0.076283   0.525213  -0.000194   0.000153   0.011170
    16  H    0.011181   0.000153  -0.000194   0.585214  -0.108471  -0.000099
    17  H   -0.021820  -0.000266   0.000153  -0.108471   0.595812   0.000067
    18  H   -0.000195  -0.022725   0.011170  -0.000099   0.000067   0.585171
    19  H    0.000154   0.012256  -0.021803   0.000067  -0.000136  -0.108477
    20  H   -0.033157  -0.003383   0.003018   0.006292  -0.012462   0.002420
    21  H    0.022956   0.003143  -0.003799  -0.010743   0.004047  -0.000920
    22  H    0.003014   0.021899  -0.033094   0.002419  -0.000608   0.006296
    23  H   -0.003798  -0.035146   0.022915  -0.000919   0.002925  -0.010742
    24  H    0.002582  -0.000041   0.000062  -0.023694   0.011406   0.000010
    25  H   -0.001406   0.000072  -0.000045   0.011577  -0.022851  -0.000011
    26  H    0.000062  -0.001607   0.002589   0.000010  -0.000009  -0.023685
    27  H   -0.000045   0.002467  -0.001410  -0.000011   0.000012   0.011571
    28  H    0.001764  -0.000003   0.000003   0.003001   0.000332  -0.000000
    29  H   -0.000324   0.000003  -0.000004   0.000379   0.002419   0.000000
    30  H   -0.000217  -0.000001   0.000000  -0.001385  -0.000604  -0.000000
    31  H    0.000003  -0.000342   0.001764  -0.000000   0.000000   0.003002
    32  H   -0.000004   0.001736  -0.000324   0.000000   0.000000   0.000379
    33  H    0.000000  -0.000288  -0.000218  -0.000000  -0.000000  -0.001386
              19         20         21         22         23         24
     1  O   -0.001024  -0.056698  -0.052411  -0.056658  -0.052347   0.000799
     2  C   -0.001075  -0.051342  -0.039483   0.027200   0.027360  -0.003499
     3  C   -0.107509   0.027138   0.027304  -0.051282  -0.039421   0.000343
     4  C   -0.000833  -0.048918  -0.077198   0.004045   0.011109  -0.064359
     5  C    0.519321   0.004067   0.011143  -0.048865  -0.077184  -0.000070
     6  C   -0.016629   0.362563   0.330496   0.058426   0.094715  -0.011421
     7  C    0.009133   0.058634   0.094861   0.362674   0.330577  -0.002810
     8  C   -0.000068  -0.020187  -0.015965   0.001433   0.001552   0.484504
     9  C   -0.050279   0.001433   0.001555  -0.020176  -0.015977   0.000010
    10  C   -0.000018  -0.004760  -0.006865   0.000466   0.000629  -0.055364
    11  C    0.020211   0.000465   0.000629  -0.004759  -0.006859   0.000000
    12  H   -0.000267   0.021946  -0.035209  -0.003382   0.003140  -0.001603
    13  H    0.000154  -0.033157   0.022956   0.003014  -0.003798   0.002582
    14  H    0.012256  -0.003383   0.003143   0.021899  -0.035146  -0.000041
    15  H   -0.021803   0.003018  -0.003799  -0.033094   0.022915   0.000062
    16  H    0.000067   0.006292  -0.010743   0.002419  -0.000919  -0.023694
    17  H   -0.000136  -0.012462   0.004047  -0.000608   0.002925   0.011406
    18  H   -0.108477   0.002420  -0.000920   0.006296  -0.010742   0.000010
    19  H    0.595736  -0.000609   0.002926  -0.012471   0.004051  -0.000009
    20  H   -0.000609   0.716377  -0.154119  -0.010358   0.005831  -0.001427
    21  H    0.002926  -0.154119   0.714188   0.005830  -0.009534   0.003369
    22  H   -0.012471  -0.010358   0.005830   0.715908  -0.153904  -0.000067
    23  H    0.004051   0.005831  -0.009534  -0.153904   0.713739   0.000012
    24  H   -0.000009  -0.001427   0.003369  -0.000067   0.000012   0.547128
    25  H    0.000012   0.003333  -0.001330  -0.000023  -0.000086  -0.075810
    26  H    0.011404  -0.000067   0.000012  -0.001428   0.003369   0.000000
    27  H   -0.022845  -0.000023  -0.000086   0.003332  -0.001329   0.000000
    28  H    0.000000   0.000700   0.000056  -0.000017  -0.000012   0.013137
    29  H    0.000000   0.000073   0.000646  -0.000017  -0.000020  -0.022550
    30  H   -0.000000  -0.000248  -0.000218   0.000005   0.000008  -0.000220
    31  H    0.000333  -0.000017  -0.000012   0.000699   0.000056   0.000000
    32  H    0.002417  -0.000017  -0.000020   0.000073   0.000646  -0.000000
    33  H   -0.000603   0.000005   0.000008  -0.000247  -0.000219  -0.000000
              25         26         27         28         29         30
     1  O    0.000621   0.000799   0.000621   0.000085   0.000064  -0.000190
     2  C    0.001139   0.000343   0.000186   0.000699  -0.000123  -0.001281
     3  C    0.000187  -0.003507   0.001183   0.000041   0.000039   0.000025
     4  C   -0.060096  -0.000070   0.000001  -0.055075  -0.034115   0.065885
     5  C    0.000001  -0.064372  -0.060136   0.000008   0.000020  -0.000016
     6  C    0.004951  -0.002804   0.000473  -0.001430   0.006541  -0.001793
     7  C    0.000466  -0.011386   0.004934   0.000352   0.001040  -0.000936
     8  C    0.463920   0.000010   0.000009   0.008938  -0.010182  -0.086210
     9  C    0.000009   0.484485   0.463929   0.000001   0.000001  -0.000001
    10  C   -0.063176   0.000000   0.000000   0.400013   0.391572   0.386759
    11  C    0.000000  -0.055362  -0.063173   0.000000   0.000000  -0.000000
    12  H    0.002462  -0.000041   0.000072  -0.000342   0.001736  -0.000289
    13  H   -0.001406   0.000062  -0.000045   0.001764  -0.000324  -0.000217
    14  H    0.000072  -0.001607   0.002467  -0.000003   0.000003  -0.000001
    15  H   -0.000045   0.002589  -0.001410   0.000003  -0.000004   0.000000
    16  H    0.011577   0.000010  -0.000011   0.003001   0.000379  -0.001385
    17  H   -0.022851  -0.000009   0.000012   0.000332   0.002419  -0.000604
    18  H   -0.000011  -0.023685   0.011571  -0.000000   0.000000  -0.000000
    19  H    0.000012   0.011404  -0.022845   0.000000   0.000000  -0.000000
    20  H    0.003333  -0.000067  -0.000023   0.000700   0.000073  -0.000248
    21  H   -0.001330   0.000012  -0.000086   0.000056   0.000646  -0.000218
    22  H   -0.000023  -0.001428   0.003332  -0.000017  -0.000017   0.000005
    23  H   -0.000086   0.003369  -0.001329  -0.000012  -0.000020   0.000008
    24  H   -0.075810   0.000000   0.000000   0.013137  -0.022550  -0.000220
    25  H    0.552645   0.000000  -0.000000  -0.023112   0.013846  -0.003680
    26  H    0.000000   0.547130  -0.075817   0.000000  -0.000000  -0.000000
    27  H   -0.000000  -0.075817   0.552641  -0.000000   0.000000   0.000000
    28  H   -0.023112   0.000000  -0.000000   0.560600  -0.071930  -0.023568
    29  H    0.013846  -0.000000   0.000000  -0.071930   0.562968  -0.027794
    30  H   -0.003680  -0.000000   0.000000  -0.023568  -0.027794   0.486237
    31  H   -0.000000   0.013136  -0.023112   0.000000  -0.000000  -0.000000
    32  H    0.000000  -0.022551   0.013848  -0.000000   0.000000   0.000000
    33  H    0.000000  -0.000219  -0.003676  -0.000000   0.000000  -0.000000
              31         32         33
     1  O    0.000085   0.000063  -0.000190
     2  C    0.000042   0.000040   0.000024
     3  C    0.000695  -0.000123  -0.001275
     4  C    0.000008   0.000020  -0.000016
     5  C   -0.055064  -0.034145   0.065893
     6  C    0.000352   0.001037  -0.000937
     7  C   -0.001423   0.006518  -0.001794
     8  C    0.000001   0.000001  -0.000001
     9  C    0.008936  -0.010145  -0.086206
    10  C    0.000000   0.000000  -0.000000
    11  C    0.400009   0.391583   0.386753
    12  H   -0.000003   0.000003  -0.000001
    13  H    0.000003  -0.000004   0.000000
    14  H   -0.000342   0.001736  -0.000288
    15  H    0.001764  -0.000324  -0.000218
    16  H   -0.000000   0.000000  -0.000000
    17  H    0.000000   0.000000  -0.000000
    18  H    0.003002   0.000379  -0.001386
    19  H    0.000333   0.002417  -0.000603
    20  H   -0.000017  -0.000017   0.000005
    21  H   -0.000012  -0.000020   0.000008
    22  H    0.000699   0.000073  -0.000247
    23  H    0.000056   0.000646  -0.000219
    24  H    0.000000  -0.000000  -0.000000
    25  H   -0.000000   0.000000   0.000000
    26  H    0.013136  -0.022551  -0.000219
    27  H   -0.023112   0.013848  -0.003676
    28  H    0.000000  -0.000000  -0.000000
    29  H   -0.000000   0.000000   0.000000
    30  H   -0.000000   0.000000  -0.000000
    31  H    0.560567  -0.071923  -0.023564
    32  H   -0.071923   0.562975  -0.027800
    33  H   -0.023564  -0.027800   0.486189
 Mulliken charges:
               1
     1  O    0.022844
     2  C   -0.309483
     3  C   -0.309394
     4  C   -0.367853
     5  C   -0.368164
     6  C   -0.346817
     7  C   -0.346610
     8  C   -0.255498
     9  C   -0.255480
    10  C   -0.860815
    11  C   -0.860895
    12  H    0.222356
    13  H    0.221374
    14  H    0.222402
    15  H    0.221427
    16  H    0.173128
    17  H    0.166556
    18  H    0.173164
    19  H    0.166634
    20  H    0.183497
    21  H    0.184744
    22  H    0.183636
    23  H    0.184864
    24  H    0.199581
    25  H    0.196385
    26  H    0.199577
    27  H    0.196384
    28  H    0.185759
    29  H    0.185710
    30  H    0.209733
    31  H    0.185772
    32  H    0.185712
    33  H    0.209769
 Sum of Mulliken charges =  -0.00000
 Mulliken charges with hydrogens summed into heavy atoms:
               1
     1  O    0.022844
     2  C    0.134247
     3  C    0.134434
     4  C   -0.028169
     5  C   -0.028365
     6  C    0.021424
     7  C    0.021890
     8  C    0.140469
     9  C    0.140480
    10  C   -0.279613
    11  C   -0.279642
 Electronic spatial extent (au):  <R**2>=           5480.2358
 Charge=             -0.0000 electrons
 Dipole moment (field-independent basis, Debye):
    X=              0.0029    Y=             -1.0083    Z=              0.0000  Tot=              1.0083
 Quadrupole moment (field-independent basis, Debye-Ang):
   XX=            -71.9456   YY=            -75.7407   ZZ=            -73.0364
   XY=             -0.0021   XZ=             -0.0890   YZ=             -0.0003
 Traceless Quadrupole moment (field-independent basis, Debye-Ang):
   XX=              1.6286   YY=             -2.1664   ZZ=              0.5378
   XY=             -0.0021   XZ=             -0.0890   YZ=             -0.0003
 Octapole moment (field-independent basis, Debye-Ang**2):
  XXX=              0.0482  YYY=              2.7668  ZZZ=              0.0004  XYY=              0.0071
  XXY=             12.6322  XXZ=              0.0012  XZZ=              0.0052  YZZ=             -0.3540
  YYZ=             -0.0002  XYZ=              0.0718
 Hexadecapole moment (field-independent basis, Debye-Ang**3):
 XXXX=          -7530.5143 YYYY=           -268.3635 ZZZZ=           -153.8462 XXXY=             -0.0298
 XXXZ=             -2.9592 YYYX=             -0.0080 YYYZ=             -0.0011 ZZZX=             -0.6586
 ZZZY=             -0.0007 XXYY=          -1278.2302 XXZZ=          -1236.1392 YYZZ=            -62.8510
 XXYZ=             -0.0087 YYXZ=              0.0267 ZZXY=             -0.0038
 N-N= 6.052212010155D+02 E-N=-2.299736159461D+03  KE= 4.670510775351D+02
 R6APFD:  NTU= -4 IXU= 1 FactS= 1.050
 Calling FoFJK, ICntrl=      2127 FMM=F ISym2X=0 I1Cent= 0 IOpClX= 0 NMat=1 NMatS=1 NMatT=0.
 ***** Axes restored to original set *****
 -------------------------------------------------------------------
 Center     Atomic                   Forces (Hartrees/Bohr)
 Number     Number              X              Y              Z
 -------------------------------------------------------------------
      1        8          -0.000275283    0.009434428   -0.000006929
      2        6          -0.001929224    0.002897430   -0.000035481
      3        6           0.001910856    0.002938158    0.000035089
      4        6          -0.002517784   -0.009368627   -0.000547410
      5        6           0.002475170   -0.009464654    0.000507675
      6        6          -0.003788945   -0.016607533    0.000221317
      7        6           0.004093643   -0.016834815   -0.000228488
      8        6           0.000177399    0.006462735    0.000114124
      9        6          -0.000176890    0.006444182   -0.000080238
     10        6           0.003341109   -0.003025203    0.000235878
     11        6          -0.003310284   -0.003097456   -0.000256894
     12        1          -0.000610118   -0.000002715    0.002140671
     13        1          -0.000426655    0.000057466   -0.002226710
     14        1           0.000611496    0.000004623   -0.002137595
     15        1           0.000427088    0.000032736    0.002249246
     16        1           0.000877324    0.002619300    0.001878182
     17        1           0.000784549    0.002639624   -0.001873965
     18        1          -0.000883198    0.002646068   -0.001923542
     19        1          -0.000778083    0.002683103    0.001947242
     20        1           0.000108948    0.004929326   -0.003599625
     21        1          -0.000140521    0.005014124    0.003548711
     22        1          -0.000113673    0.004932132    0.003616441
     23        1           0.000147836    0.005016647   -0.003563058
     24        1          -0.001994470   -0.002564077    0.001328890
     25        1          -0.002303683   -0.002476229   -0.001271033
     26        1           0.001993710   -0.002557656   -0.001331755
     27        1           0.002305697   -0.002450227    0.001244217
     28        1           0.000477316    0.001750482   -0.001089031
     29        1           0.000636140    0.001802573    0.001048971
     30        1           0.003176509    0.001258108   -0.000050735
     31        1          -0.000481702    0.001794877    0.001143582
     32        1          -0.000643996    0.001843164   -0.001091168
     33        1          -0.003170281    0.001247905    0.000053421
 -------------------------------------------------------------------
 Cartesian Forces:  Max     0.016834815 RMS     0.003661726

 GradGradGradGradGradGradGradGradGradGradGradGradGradGradGradGradGradGrad
 Berny optimization.
 FormGI is forming the generalized inverse of G from B-inverse, IUseBI=4.
 Internal  Forces:  Max     0.007444298 RMS     0.001898152
 Search for a local minimum.
 Step number   1 out of a maximum of  181
 All quantities printed in internal units (Hartrees-Bohrs-Radians)
 Mixed Optimization -- RFO/linear search
 Second derivative matrix not updated -- first step.
 ITU=  0
     Eigenvalues ---    0.00389   0.00390   0.00408   0.00408   0.00472
     Eigenvalues ---    0.00473   0.00495   0.00495   0.01409   0.01418
     Eigenvalues ---    0.03647   0.03648   0.03696   0.03696   0.03720
     Eigenvalues ---    0.03721   0.04882   0.04883   0.04900   0.04901
     Eigenvalues ---    0.04928   0.04928   0.05311   0.05311   0.05606
     Eigenvalues ---    0.05607   0.05702   0.05702   0.05904   0.05907
     Eigenvalues ---    0.08121   0.08122   0.08167   0.08167   0.08247
     Eigenvalues ---    0.08249   0.11266   0.11267   0.12041   0.12041
     Eigenvalues ---    0.12068   0.12068   0.12128   0.12129   0.13695
     Eigenvalues ---    0.13696   0.16000   0.16000   0.16000   0.16000
     Eigenvalues ---    0.16000   0.16000   0.21855   0.21855   0.21898
     Eigenvalues ---    0.21898   0.21906   0.21906   0.22028   0.22028
     Eigenvalues ---    0.25000   0.29565   0.29571   0.29697   0.29697
     Eigenvalues ---    0.30156   0.30160   0.30320   0.30323   0.33984
     Eigenvalues ---    0.33990   0.33990   0.33990   0.34017   0.34032
     Eigenvalues ---    0.34041   0.34050   0.34090   0.34094   0.34096
     Eigenvalues ---    0.34099   0.34101   0.34106   0.34109   0.34109
     Eigenvalues ---    0.34275   0.34278   0.34285   0.34291   0.34302
     Eigenvalues ---    0.34302   0.42252   0.42352
 RFO step:  Lambda=-2.84663333D-03 EMin= 3.89381787D-03
 Linear search not attempted -- first point.
 Iteration  1 RMS(Cart)=  0.02687957 RMS(Int)=  0.00024227
 Iteration  2 RMS(Cart)=  0.00044850 RMS(Int)=  0.00007722
 Iteration  3 RMS(Cart)=  0.00000006 RMS(Int)=  0.00007722
 Variable       Old X    -DE/DX   Delta X   Delta X   Delta X     New X
                                 (Linear)    (Quad)   (Total)
    R1        2.68478  -0.00601   0.00000  -0.01410  -0.01410   2.67067
    R2        2.68603  -0.00636   0.00000  -0.01495  -0.01495   2.67109
    R3        2.88571   0.00180   0.00000   0.00599   0.00599   2.89170
    R4        2.87653  -0.00148   0.00000  -0.00488  -0.00488   2.87165
    R5        2.07347   0.00174   0.00000   0.00509   0.00509   2.07856
    R6        2.07357   0.00175   0.00000   0.00510   0.00510   2.07867
    R7        2.88571   0.00180   0.00000   0.00602   0.00602   2.89173
    R8        2.87645  -0.00147   0.00000  -0.00482  -0.00482   2.87163
    R9        2.07347   0.00174   0.00000   0.00507   0.00507   2.07854
   R10        2.07346   0.00178   0.00000   0.00520   0.00520   2.07866
   R11        2.88827   0.00085   0.00000   0.00283   0.00283   2.89111
   R12        2.07261   0.00308   0.00000   0.00898   0.00898   2.08159
   R13        2.07302   0.00311   0.00000   0.00905   0.00905   2.08207
   R14        2.88838   0.00081   0.00000   0.00273   0.00273   2.89111
   R15        2.07245   0.00314   0.00000   0.00913   0.00913   2.08159
   R16        2.07276   0.00319   0.00000   0.00930   0.00930   2.08206
   R17        2.07172   0.00580   0.00000   0.01686   0.01686   2.08858
   R18        2.07179   0.00580   0.00000   0.01689   0.01689   2.08868
   R19        2.07160   0.00581   0.00000   0.01690   0.01690   2.08850
   R20        2.07168   0.00582   0.00000   0.01692   0.01692   2.08860
   R21        2.87323   0.00744   0.00000   0.02432   0.02432   2.89755
   R22        2.07146   0.00260   0.00000   0.00755   0.00755   2.07902
   R23        2.07151   0.00259   0.00000   0.00753   0.00753   2.07905
   R24        2.87329   0.00742   0.00000   0.02426   0.02426   2.89755
   R25        2.07146   0.00260   0.00000   0.00755   0.00755   2.07901
   R26        2.07163   0.00255   0.00000   0.00742   0.00742   2.07905
   R27        2.06863   0.00192   0.00000   0.00556   0.00556   2.07420
   R28        2.06868   0.00195   0.00000   0.00565   0.00565   2.07434
   R29        2.06824   0.00170   0.00000   0.00493   0.00493   2.07317
   R30        2.06842   0.00199   0.00000   0.00576   0.00576   2.07419
   R31        2.06851   0.00201   0.00000   0.00582   0.00582   2.07433
   R32        2.06823   0.00171   0.00000   0.00493   0.00493   2.07317
    A1        1.94694   0.00207   0.00000   0.00817   0.00817   1.95511
    A2        1.94913   0.00154   0.00000   0.00466   0.00466   1.95380
    A3        1.92451  -0.00027   0.00000  -0.00066  -0.00066   1.92385
    A4        1.92415  -0.00038   0.00000  -0.00030  -0.00030   1.92385
    A5        1.90966  -0.00107   0.00000  -0.00931  -0.00931   1.90035
    A6        1.90603  -0.00081   0.00000  -0.00596  -0.00596   1.90007
    A7        1.84753   0.00094   0.00000   0.01175   0.01173   1.85926
    A8        1.94895   0.00156   0.00000   0.00478   0.00479   1.95373
    A9        1.92457  -0.00028   0.00000  -0.00073  -0.00072   1.92385
   A10        1.92415  -0.00039   0.00000  -0.00028  -0.00028   1.92387
   A11        1.90976  -0.00108   0.00000  -0.00940  -0.00940   1.90035
   A12        1.90601  -0.00082   0.00000  -0.00593  -0.00593   1.90008
   A13        1.84760   0.00095   0.00000   0.01172   0.01170   1.85930
   A14        1.94319   0.00384   0.00000   0.02134   0.02128   1.96448
   A15        1.91385  -0.00066   0.00000   0.00080   0.00085   1.91470
   A16        1.91131  -0.00054   0.00000   0.00416   0.00413   1.91544
   A17        1.91383  -0.00152   0.00000  -0.00925  -0.00934   1.90449
   A18        1.91055  -0.00131   0.00000  -0.00518  -0.00535   1.90521
   A19        1.86962   0.00004   0.00000  -0.01322  -0.01329   1.85633
   A20        1.94314   0.00385   0.00000   0.02136   0.02130   1.96445
   A21        1.91382  -0.00065   0.00000   0.00085   0.00089   1.91472
   A22        1.91145  -0.00056   0.00000   0.00404   0.00401   1.91546
   A23        1.91383  -0.00152   0.00000  -0.00927  -0.00935   1.90447
   A24        1.91055  -0.00131   0.00000  -0.00518  -0.00534   1.90520
   A25        1.86958   0.00004   0.00000  -0.01316  -0.01323   1.85635
   A26        1.90001   0.00104   0.00000   0.00853   0.00847   1.90848
   A27        1.91144  -0.00016   0.00000   0.00288   0.00283   1.91427
   A28        1.91267  -0.00036   0.00000   0.00121   0.00116   1.91383
   A29        1.92042   0.00032   0.00000   0.00280   0.00277   1.92319
   A30        1.92011   0.00057   0.00000   0.00441   0.00438   1.92449
   A31        1.89919  -0.00141   0.00000  -0.01978  -0.01978   1.87942
   A32        1.89989   0.00108   0.00000   0.00869   0.00864   1.90852
   A33        1.91114  -0.00017   0.00000   0.00286   0.00282   1.91396
   A34        1.91244  -0.00038   0.00000   0.00113   0.00108   1.91351
   A35        1.92071   0.00030   0.00000   0.00270   0.00267   1.92337
   A36        1.92031   0.00057   0.00000   0.00441   0.00438   1.92470
   A37        1.89934  -0.00140   0.00000  -0.01975  -0.01974   1.87960
   A38        1.94589   0.00260   0.00000   0.01603   0.01602   1.96192
   A39        1.91720  -0.00165   0.00000  -0.01400  -0.01423   1.90297
   A40        1.91792  -0.00191   0.00000  -0.01530  -0.01557   1.90235
   A41        1.90649   0.00040   0.00000   0.01193   0.01201   1.91850
   A42        1.90336   0.00077   0.00000   0.01571   0.01579   1.91915
   A43        1.87139  -0.00030   0.00000  -0.01525  -0.01558   1.85581
   A44        1.94593   0.00259   0.00000   0.01597   0.01596   1.96190
   A45        1.91721  -0.00165   0.00000  -0.01400  -0.01423   1.90298
   A46        1.91793  -0.00191   0.00000  -0.01533  -0.01559   1.90234
   A47        1.90652   0.00040   0.00000   0.01192   0.01200   1.91852
   A48        1.90335   0.00077   0.00000   0.01574   0.01582   1.91917
   A49        1.87131  -0.00030   0.00000  -0.01518  -0.01552   1.85579
   A50        1.93756   0.00000   0.00000  -0.00204  -0.00210   1.93546
   A51        1.93717   0.00019   0.00000  -0.00082  -0.00090   1.93627
   A52        1.92434   0.00423   0.00000   0.03002   0.02991   1.95425
   A53        1.89037  -0.00100   0.00000  -0.01365  -0.01368   1.87669
   A54        1.88632  -0.00177   0.00000  -0.00708  -0.00716   1.87916
   A55        1.88642  -0.00185   0.00000  -0.00746  -0.00757   1.87885
   A56        1.93754   0.00001   0.00000  -0.00202  -0.00208   1.93546
   A57        1.93708   0.00020   0.00000  -0.00074  -0.00082   1.93626
   A58        1.92442   0.00422   0.00000   0.02990   0.02980   1.95422
   A59        1.89046  -0.00100   0.00000  -0.01370  -0.01373   1.87673
   A60        1.88632  -0.00176   0.00000  -0.00706  -0.00715   1.87917
   A61        1.88637  -0.00184   0.00000  -0.00741  -0.00752   1.87885
    D1       -3.14159   0.00006   0.00000   0.00051   0.00050  -3.14109
    D2       -1.04124   0.00099   0.00000   0.01086   0.01088  -1.03036
    D3        1.04089  -0.00105   0.00000  -0.01084  -0.01084   1.03004
    D4       -3.14158   0.00007   0.00000   0.00053   0.00053  -3.14106
    D5       -1.04114   0.00099   0.00000   0.01086   0.01087  -1.03027
    D6        1.04085  -0.00105   0.00000  -0.01086  -0.01086   1.02999
    D7       -3.11153  -0.00026   0.00000  -0.01403  -0.01404  -3.12557
    D8        1.05053  -0.00043   0.00000  -0.01697  -0.01700   1.03353
    D9       -0.99624   0.00023   0.00000  -0.00385  -0.00381  -1.00005
   D10        1.04451   0.00025   0.00000  -0.00488  -0.00489   1.03962
   D11       -1.07661   0.00008   0.00000  -0.00783  -0.00786  -1.08447
   D12       -3.12339   0.00073   0.00000   0.00529   0.00534  -3.11805
   D13       -0.98926  -0.00051   0.00000  -0.01866  -0.01868  -1.00794
   D14       -3.11038  -0.00068   0.00000  -0.02161  -0.02164  -3.13202
   D15        1.12603  -0.00003   0.00000  -0.00849  -0.00844   1.11758
   D16        3.13062   0.00008   0.00000   0.00603   0.00602   3.13665
   D17        1.03583  -0.00056   0.00000  -0.00446  -0.00448   1.03135
   D18       -1.05645   0.00062   0.00000   0.01546   0.01548  -1.04097
   D19       -1.01688   0.00002   0.00000   0.00184   0.00184  -1.01505
   D20       -3.11168  -0.00062   0.00000  -0.00864  -0.00866  -3.12034
   D21        1.07923   0.00056   0.00000   0.01128   0.01129   1.09053
   D22        0.99791   0.00010   0.00000   0.00743   0.00743   1.00535
   D23       -1.09689  -0.00053   0.00000  -0.00306  -0.00306  -1.09995
   D24        3.09403   0.00065   0.00000   0.01687   0.01689   3.11092
   D25       -3.11160  -0.00026   0.00000  -0.01405  -0.01406  -3.12567
   D26        1.05052  -0.00043   0.00000  -0.01702  -0.01705   1.03347
   D27       -0.99627   0.00022   0.00000  -0.00393  -0.00389  -1.00016
   D28        1.04440   0.00025   0.00000  -0.00482  -0.00483   1.03957
   D29       -1.07666   0.00008   0.00000  -0.00779  -0.00782  -1.08448
   D30       -3.12345   0.00073   0.00000   0.00529   0.00534  -3.11811
   D31       -0.98948  -0.00051   0.00000  -0.01854  -0.01855  -1.00804
   D32       -3.11055  -0.00068   0.00000  -0.02151  -0.02154  -3.13209
   D33        1.12585  -0.00003   0.00000  -0.00843  -0.00838   1.11747
   D34        3.13056   0.00008   0.00000   0.00608   0.00608   3.13664
   D35        1.03603  -0.00056   0.00000  -0.00443  -0.00444   1.03159
   D36       -1.05674   0.00062   0.00000   0.01552   0.01553  -1.04121
   D37       -1.01693   0.00002   0.00000   0.00184   0.00183  -1.01510
   D38       -3.11146  -0.00062   0.00000  -0.00868  -0.00869  -3.12015
   D39        1.07895   0.00056   0.00000   0.01128   0.01129   1.09024
   D40        0.99799   0.00010   0.00000   0.00736   0.00736   1.00535
   D41       -1.09654  -0.00054   0.00000  -0.00316  -0.00316  -1.09971
   D42        3.09387   0.00064   0.00000   0.01679   0.01682   3.11068
   D43        3.11733   0.00025   0.00000   0.01418   0.01419   3.13152
   D44       -1.04994   0.00136   0.00000   0.03031   0.03018  -1.01976
   D45        1.00487  -0.00113   0.00000  -0.00582  -0.00566   0.99921
   D46       -1.04472   0.00092   0.00000   0.02298   0.02292  -1.02180
   D47        1.07119   0.00203   0.00000   0.03911   0.03892   1.11011
   D48        3.12600  -0.00046   0.00000   0.00298   0.00308   3.12908
   D49        1.00160  -0.00068   0.00000  -0.00143  -0.00140   1.00020
   D50        3.11751   0.00043   0.00000   0.01470   0.01460   3.13211
   D51       -1.11086  -0.00206   0.00000  -0.02144  -0.02125  -1.13211
   D52        3.11740   0.00025   0.00000   0.01411   0.01412   3.13152
   D53       -1.04980   0.00135   0.00000   0.03019   0.03006  -1.01973
   D54        1.00493  -0.00114   0.00000  -0.00588  -0.00572   0.99921
   D55       -1.04473   0.00092   0.00000   0.02297   0.02291  -1.02181
   D56        1.07126   0.00203   0.00000   0.03905   0.03886   1.11012
   D57        3.12598  -0.00046   0.00000   0.00298   0.00308   3.12906
   D58        1.00154  -0.00067   0.00000  -0.00137  -0.00134   1.00020
   D59        3.11753   0.00043   0.00000   0.01471   0.01461   3.13213
   D60       -1.11093  -0.00206   0.00000  -0.02136  -0.02117  -1.13211
   D61       -1.05303   0.00059   0.00000   0.00884   0.00884  -1.04419
   D62        1.05047  -0.00054   0.00000  -0.01035  -0.01038   1.04009
   D63        3.14025   0.00003   0.00000  -0.00061  -0.00062   3.13963
   D64        3.10802   0.00070   0.00000   0.00792   0.00789   3.11591
   D65       -1.07167  -0.00044   0.00000  -0.01127  -0.01133  -1.08300
   D66        1.01811   0.00014   0.00000  -0.00153  -0.00157   1.01655
   D67        1.06791   0.00039   0.00000   0.01059   0.01067   1.07858
   D68       -3.11178  -0.00074   0.00000  -0.00859  -0.00855  -3.12033
   D69       -1.02200  -0.00016   0.00000   0.00114   0.00121  -1.02079
   D70       -1.05312   0.00059   0.00000   0.00885   0.00885  -1.04426
   D71        1.05042  -0.00054   0.00000  -0.01032  -0.01036   1.04006
   D72        3.14013   0.00004   0.00000  -0.00055  -0.00056   3.13957
   D73        3.10788   0.00070   0.00000   0.00798   0.00795   3.11582
[...]
 237,-0.00002156,0.00000150,0.00000077,0.00000043,0.00000225,-0.0000029
 4,-0.00000102,-0.00000005,-0.00000150,-0.00000147,-0.00476130,-0.00295
 602,-0.00018160,0.00103952,0.00051171,-0.00038663,0.00000008,0.0000002
 1,0.00000054,0.00000021,0.00000062,-0.00000090,0.05061383,-0.00010300,
 0.00001682,-0.00001190,0.00003438,0.00012160,-0.00022964,-0.00000657,0
 .00000787,0.00000358,0.00100301,0.00042603,-0.00041135,-0.00000060,-0.
 00000909,0.00000148,0.00005303,0.00000336,-0.00004285,0.00004616,-0.00
 003903,0.00000820,-0.00105871,-0.01164684,0.01522997,-0.00000040,0.000
 00520,0.00000107,-0.00537574,-0.13505443,0.12332180,-0.00000135,-0.000
 00304,0.00000015,0.00019808,0.00004381,-0.00005993,-0.00001537,-0.0000
 5932,0.00000143,-0.00000020,-0.00000232,-0.00000042,0.00000190,0.00000
 030,-0.00000176,-0.00007696,0.00000834,-0.00009692,-0.00050354,0.00057
 973,-0.00007326,-0.00000073,0.00000189,-0.00000144,0.00000052,0.000000
 11,-0.00000027,-0.00003509,0.00002175,-0.00000558,-0.00000014,0.000001
 04,-0.00000100,-0.00000235,0.00000441,0.00000043,-0.00000302,0.0000083
 4,-0.00000538,-0.00339780,-0.00105430,-0.00060970,0.00039436,-0.000150
 76,-0.00014465,-0.00000008,-0.00000109,-0.00000052,0.00000042,0.000000
 22,-0.00000072,0.00997606,0.14591991,0.00006537,-0.00005314,0.00001502
 ,0.00014834,-0.00031043,0.00029317,0.00000618,-0.00000444,-0.00000009,
 -0.00023970,-0.00018131,0.00012423,0.00000007,0.00000522,-0.00000097,0
 .00003341,0.00008248,-0.00004017,-0.00002241,0.00003431,-0.00001442,-0
 .00009744,-0.00072231,0.00096548,0.00000077,-0.00000192,-0.00000061,0.
 00817984,0.12363130,-0.21854606,0.00000058,0.00000152,-0.00000053,-0.0
 0017627,-0.00005335,-0.00002033,-0.00002472,-0.00000786,-0.00002520,-0
 .00000089,0.00000041,-0.00000096,-0.00000240,-0.00000189,0.00000229,0.
 00000103,0.00011468,-0.00011022,0.00068456,-0.00011349,0.00008329,0.00
 000100,-0.00000171,0.00000263,0.00000022,-0.00000008,-0.00000125,0.000
 01506,-0.00000877,0.00002744,0.00000548,-0.00000305,-0.00000811,0.0000
 0181,-0.00000194,-0.00000323,0.00000225,-0.00000487,0.00000869,-0.0003
 3183,-0.00028085,0.00152507,0.00054019,0.00004218,0.00064249,-0.000000
 22,0.00000020,-0.00000051,-0.00000046,-0.00000087,0.00000137,-0.009192
 64,-0.13635720,0.23426484,0.00010994,0.00001304,0.00001444,-0.00011204
 ,-0.00008432,0.00016025,0.00000170,-0.00000699,-0.00000029,0.00186773,
 -0.00085228,-0.00119427,0.00000159,0.00000543,0.00000022,-0.00003691,0
 .00007461,0.00007584,-0.00002349,0.00001512,-0.00000804,-0.00225774,-0
 .01700312,-0.02451734,-0.00000015,-0.00000351,-0.00000082,-0.04625403,
 -0.00540275,-0.00814541,0.00000114,0.00000163,0.00000031,0.00003877,-0
 .00001270,-0.00002658,0.00013027,0.00019004,0.00017327,0.00000143,0.00
 000134,0.00000204,0.00000040,0.,-0.00000127,-0.00052143,0.00055366,0.0
 0066593,-0.00001397,0.00010285,0.00002473,-0.00000031,-0.00000024,-0.0
 0000023,-0.00000119,0.00000047,0.00000085,0.00000157,0.00000074,-0.000
 00042,-0.00004649,0.00004239,0.00002181,-0.00000005,-0.00000147,0.0000
 0150,0.00000224,-0.00000295,0.00000102,0.00104014,0.00051059,0.0003865
 9,-0.00475927,-0.00295419,0.00018951,0.00000022,0.00000063,0.00000090,
 0.00000008,0.00000021,-0.00000054,-0.00138525,0.00069214,0.00057188,0.
 05067244,-0.00010284,0.00001662,0.00001207,0.00003558,0.00012014,0.000
 22820,-0.00000655,0.00000786,-0.00000360,0.00100153,0.00042282,0.00041
 067,-0.00000061,-0.00000908,-0.00000145,0.00005341,0.00000357,0.000043
 07,0.00004608,-0.00003890,-0.00000820,-0.00110476,-0.01160320,-0.01526
 716,-0.00000040,0.00000520,-0.00000109,-0.00571455,-0.13426862,-0.1230
 3199,-0.00000135,-0.00000303,-0.00000014,-0.00001553,-0.00005934,-0.00
 000129,0.00019755,0.00004355,0.00005960,0.00000189,0.00000030,0.000001
 74,-0.00000021,-0.00000232,0.00000044,-0.00050080,0.00057905,0.0000755
 7,-0.00007621,0.00000843,0.00009734,0.00000052,0.00000010,0.00000028,-
 0.00000072,0.00000189,0.00000143,-0.00000010,0.00000100,0.00000099,-0.
 00003502,0.00002170,0.00000558,-0.00000299,0.00000833,0.00000534,-0.00
 000235,0.00000440,-0.00000042,0.00039653,-0.00015041,0.00014106,-0.003
 39815,-0.00105657,0.00061066,0.00000042,0.00000022,0.00000071,-0.00000
 008,-0.00000109,0.00000053,0.00074114,0.01190925,0.01589176,0.01035217
 ,0.14505451,-0.00006604,0.00005309,0.00001527,-0.00014698,0.00031033,0
 .00029480,-0.00000621,0.00000449,-0.00000010,0.00023747,0.00018374,0.0
 0012711,-0.00000008,-0.00000527,-0.00000097,-0.00003301,-0.00008256,-0
 .00004037,0.00002260,-0.00003447,-0.00001456,0.00010514,0.00073180,0.0
 0099110,-0.00000077,0.00000196,-0.00000062,-0.00869866,-0.12334523,-0.
 21932363,-0.00000059,-0.00000153,-0.00000053,0.00002428,0.00000761,-0.
 00002517,0.00017648,0.00005301,-0.00002094,0.00000241,0.00000189,0.000
 00228,0.00000088,-0.00000043,-0.00000094,-0.00068459,0.00011357,0.0000
 8385,-0.00000111,-0.00011459,-0.00010970,-0.00000022,0.00000007,-0.000
 00124,-0.00000099,0.00000172,0.00000263,-0.00000550,0.00000305,-0.0000
 0801,-0.00001497,0.00000870,0.00002746,-0.00000224,0.00000492,0.000008
 71,-0.00000183,0.00000195,-0.00000320,-0.00054018,-0.00004576,0.000644
 35,0.00033928,0.00028236,0.00152623,0.00000046,0.00000087,0.00000136,0
 .00000022,-0.00000022,-0.00000050,-0.00062342,-0.01578978,-0.01985279,
 0.00975952,0.13603763,0.23511754,-0.00066645,0.00018978,0.00000081,-0.
 00095461,0.00181337,0.00000400,-0.00003586,0.00005390,0.,-0.00363860,-
 0.00542260,-0.00000175,-0.00000984,-0.00004312,0.00000006,0.00001856,-
 0.00066309,-0.00000063,0.00015748,-0.00019152,-0.00000009,-0.01997752,
 0.01821402,0.00005544,-0.00000267,0.00002440,-0.00000003,-0.21588689,0
 .12710415,0.00044795,-0.00000731,-0.00001214,0.00000003,0.00000187,-0.
 00002330,0.00009195,0.00000199,-0.00002305,-0.00009212,0.00000167,-0.0
 0000288,-0.00000340,0.00000168,-0.00000287,0.00000340,0.00028569,-0.00
 011352,0.00011720,0.00028539,-0.00011348,-0.00011763,0.00000142,0.0000
 0203,-0.00000120,0.00000143,0.00000203,0.00000119,-0.00000492,0.000010
 64,-0.00003249,-0.00000474,0.00001051,0.00003254,-0.00001383,0.0000241
 6,0.00001267,-0.00001388,0.00002417,-0.00001266,0.00054894,-0.00002125
 ,0.00066623,0.00054830,-0.00001845,-0.00066802,0.00000007,-0.00000200,
 -0.00000184,0.00000008,-0.00000198,0.00000184,0.00147821,-0.00181624,-
 0.00017024,0.00154183,-0.00186144,0.00015982,0.23635010,-0.00011358,0.
 00008956,0.00000018,-0.00092092,0.00087712,0.00000131,-0.00000990,0.00
 001207,0.,-0.00254870,-0.00218366,0.00000025,-0.00000276,-0.00000351,0
 .,-0.00019069,-0.00031583,-0.00000006,-0.00002826,-0.00003456,0.000000
 06,-0.01630895,0.01302050,0.00004546,-0.00000194,-0.00000002,0.,0.1282
 5552,-0.14239643,-0.00034591,0.00000004,0.00000018,0.,0.00007523,0.000
 03538,0.00002988,0.00007504,0.00003531,-0.00002996,0.00000028,0.000000
 43,-0.00000021,0.00000028,0.00000042,0.00000022,-0.00016032,0.00001570
 ,0.00025947,-0.00016223,0.00001754,-0.00025948,-0.00000025,0.,-0.00000
 038,-0.00000025,0.,0.00000039,0.00000526,0.00000396,-0.00002159,0.0000
 0533,0.00000391,0.00002159,-0.00000096,0.00000134,0.00000397,-0.000000
 96,0.00000133,-0.00000396,0.00078837,0.00065401,0.00017049,0.00078865,
 0.00065440,-0.00017029,0.00000007,0.00000025,0.00000018,0.00000006,0.0
 0000025,-0.00000018,0.01383259,-0.01106125,-0.00169373,0.01376782,-0.0
 1101784,0.00161622,-0.13714455,0.15158949,0.00000069,-0.00000011,-0.00
 000381,0.00000073,-0.00000171,0.00059763,0.00000003,-0.00000006,0.0000
 0184,0.00000017,0.00000333,0.00022132,0.00000001,0.00000005,0.00000185
 ,-0.00000021,0.00000041,-0.00000243,-0.00000027,0.00000020,-0.00001127
 ,-0.00000108,-0.00000370,-0.00143298,0.,-0.00000003,0.00000079,0.00044
 904,-0.00034365,-0.04638297,0.,0.00000001,-0.00000022,-0.00007638,-0.0
 0003772,-0.00001944,0.00007644,0.00003779,-0.00001938,-0.00000008,-0.0
 0000017,-0.00000047,0.00000008,0.00000017,-0.00000049,-0.00029785,0.00
 032940,0.00022592,0.00029743,-0.00032940,0.00022409,-0.00000007,0.0000
 0028,-0.00000017,0.00000006,-0.00000028,-0.00000017,-0.00000183,0.0000
 0241,0.00000593,0.00000186,-0.00000241,0.00000589,0.00000089,-0.000000
 91,0.00000084,-0.00000086,0.00000086,0.00000087,0.00027932,-0.00026281
 ,-0.00005886,-0.00027886,0.00026511,-0.00005515,-0.00000009,-0.0000003
 1,-0.00000024,0.00000009,0.00000032,-0.00000025,-0.02180088,0.01527659
 ,0.00066883,0.02184463,-0.01530979,0.00055995,-0.00049305,0.00037612,0
 .04547286,0.00011020,-0.00001293,-0.00001463,0.00000171,0.00000702,0.0
 0000028,-0.00011198,0.00008429,-0.00015900,0.00000160,-0.00000545,-0.0
 0000023,0.00186996,0.00085570,0.00118741,-0.00002355,-0.00001522,0.000
 00796,-0.00003710,-0.00007507,-0.00007546,-0.00000015,0.00000351,0.000
 00083,-0.00218869,0.01708150,0.02447367,0.00000114,-0.00000163,-0.0000
 0032,-0.04620026,0.00505997,0.00762633,0.00000041,0.,0.00000127,0.0000
 0142,-0.00000133,-0.00000204,0.00012946,-0.00019009,-0.00017321,0.0000
 3910,0.00001273,0.00002657,-0.00000118,-0.00000046,-0.00000084,-0.0000
 0031,0.00000023,0.00000023,-0.00001399,-0.00010391,-0.00002436,-0.0005
 2139,-0.00055426,-0.00066331,0.00000225,0.00000294,-0.00000102,-0.0000
 0005,0.00000150,-0.00000147,-0.00004649,-0.00004237,-0.00002156,0.0000
 0150,-0.00000077,0.00000043,0.00000008,-0.00000021,0.00000054,0.000000
 21,-0.00000062,-0.00000090,-0.00476136,0.00295600,-0.00018152,0.001039
 53,-0.00051169,-0.00038664,-0.00000035,0.00000048,0.00000006,-0.000000
 67,0.00000021,-0.00000015,0.00000184,-0.00000035,0.00000012,0.05061401
 ,0.00010300,0.00001682,0.00001190,0.00000657,0.00000787,-0.00000358,-0
 .00003439,0.00012158,0.00022963,0.00000060,-0.00000909,-0.00000148,-0.
 00100299,0.00042601,0.00041137,-0.00004615,-0.00003902,-0.00000820,-0.
 00005303,0.00000336,0.00004285,0.00000040,0.00000520,-0.00000107,0.001
 05881,-0.01164622,-0.01523017,0.00000135,-0.00000304,-0.00000015,0.005
 37635,-0.13504648,-0.12331907,0.00000020,-0.00000232,0.00000042,-0.000
 00190,0.00000030,0.00000176,-0.00019807,0.00004380,0.00005993,0.000015
 38,-0.00005932,-0.00000143,0.00000073,0.00000189,0.00000144,-0.0000005
 2,0.00000011,0.00000027,0.00007696,0.00000834,0.00009693,0.00050351,0.
 00057972,0.00007327,0.00000235,0.00000441,-0.00000043,0.00000302,0.000
 00834,0.00000538,0.00003509,0.00002175,0.00000558,0.00000014,0.0000010
 4,0.00000100,0.00000008,-0.00000109,0.00000052,-0.00000042,0.00000022,
 0.00000072,0.00339777,-0.00105428,0.00060962,-0.00039436,-0.00015077,0
 .00014462,-0.00000048,0.00000041,-0.00000011,-0.00000020,0.00000148,0.
 00000080,0.00000284,-0.00000041,-0.00000027,-0.00997671,0.14591106,0.0
 0006537,0.00005314,0.00001502,0.00000618,0.00000444,-0.00000009,0.0001
 4834,0.00031043,0.00029319,0.00000007,-0.00000522,-0.00000097,-0.00023
 974,0.00018132,0.00012425,-0.00002241,-0.00003432,-0.00001443,0.000033
 41,-0.00008248,-0.00004017,0.00000077,0.00000192,-0.00000061,-0.000097
 42,0.00072193,0.00096505,0.00000058,-0.00000152,-0.00000053,0.00818123
 ,-0.12362856,-0.21855389,-0.00000089,-0.00000041,-0.00000096,-0.000002
 40,0.00000189,0.00000229,-0.00017628,0.00005335,-0.00002032,-0.0000247
 2,0.00000786,-0.00002520,0.00000100,0.00000171,0.00000263,0.00000022,0
 .00000008,-0.00000125,0.00000104,-0.00011467,-0.00011022,0.00068457,0.
 00011351,0.00008330,0.00000181,0.00000194,-0.00000323,0.00000225,0.000
 00487,0.00000869,0.00001506,0.00000877,0.00002744,0.00000548,0.0000030
 5,-0.00000811,-0.00000022,-0.00000020,-0.00000051,-0.00000046,0.000000
 87,0.00000137,-0.00033173,0.00028076,0.00152510,0.00054017,-0.00004220
 ,0.00064249,0.00000006,0.00000011,-0.00000066,0.00000015,0.00000079,0.
 00000137,0.00000097,-0.00000003,-0.00000011,-0.00919430,0.13635430,0.2
 3427348,0.00010994,-0.00001304,0.00001444,0.00000170,0.00000699,-0.000
 00029,-0.00011204,0.00008431,0.00016026,0.00000159,-0.00000543,0.00000
 022,0.00186774,0.00085233,-0.00119424,-0.00002348,-0.00001512,-0.00000
 804,-0.00003690,-0.00007462,0.00007584,-0.00000015,0.00000351,-0.00000
 082,-0.00225786,0.01700398,-0.02451692,0.00000114,-0.00000163,0.000000
 31,-0.04625411,0.00540358,-0.00814603,0.00000143,-0.00000134,0.0000020
 4,0.00000040,0.,-0.00000127,0.00003877,0.00001270,-0.00002658,0.000130
 27,-0.00019004,0.00017326,-0.00000031,0.00000024,-0.00000023,-0.000001
 19,-0.00000047,0.00000085,-0.00052143,-0.00055369,0.00066591,-0.000013
 97,-0.00010285,0.00002473,-0.00000005,0.00000147,0.00000150,0.00000224
 ,0.00000295,0.00000102,0.00000157,-0.00000074,-0.00000042,-0.00004649,
 -0.00004239,0.00002181,0.00000022,-0.00000063,0.00000090,0.00000008,-0
 .00000021,-0.00000054,0.00104015,-0.00051060,0.00038658,-0.00475932,0.
 00295415,0.00018960,-0.00000067,0.00000020,0.00000015,-0.00000034,0.00
 000048,-0.00000006,0.00000184,-0.00000035,-0.00000013,-0.00138524,-0.0
 0069228,0.00057201,0.05067259,0.00010284,0.00001662,-0.00001207,0.0000
 0655,0.00000786,0.00000360,-0.00003557,0.00012016,-0.00022820,0.000000
 61,-0.00000908,0.00000145,-0.00100152,0.00042283,-0.00041067,-0.000046
 08,-0.00003891,0.00000820,-0.00005341,0.00000357,-0.00004306,0.0000004
 0,0.00000520,0.00000109,0.00110482,-0.01160352,0.01526656,0.00000135,-
 0.00000303,0.00000014,0.00571539,-0.13427632,0.12303460,-0.00000189,0.
 00000030,-0.00000174,0.00000021,-0.00000232,-0.00000044,0.00001553,-0.
 00005933,0.00000129,-0.00019755,0.00004355,-0.00005960,-0.00000052,0.0
 0000010,-0.00000028,0.00000072,0.00000189,-0.00000143,0.00050081,0.000
 57905,-0.00007554,0.00007621,0.00000843,-0.00009734,0.00000299,0.00000
 833,-0.00000534,0.00000235,0.00000440,0.00000042,0.00000010,0.00000100
 ,-0.00000099,0.00003502,0.00002170,-0.00000558,-0.00000042,0.00000022,
 -0.00000071,0.00000008,-0.00000109,-0.00000053,-0.00039651,-0.00015041
 ,-0.00014108,0.00339811,-0.00105649,-0.00061074,-0.00000021,0.00000148
 ,-0.00000079,-0.00000048,0.00000040,0.00000011,0.00000284,-0.00000041,
 0.00000026,-0.00074121,0.01190925,-0.01589075,-0.01035309,0.14506295,-
 0.00006604,-0.00005309,0.00001527,-0.00000621,-0.00000449,-0.00000010,
 -0.00014698,-0.00031033,0.00029478,-0.00000008,0.00000527,-0.00000097,
 0.00023744,-0.00018373,0.00012709,0.00002260,0.00003447,-0.00001456,-0
 .00003301,0.00008256,-0.00004036,-0.00000077,-0.00000196,-0.00000062,0
 .00010518,-0.00073217,0.00099153,-0.00000059,0.00000153,-0.00000053,-0
 .00869927,0.12334784,-0.21931585,0.00000241,-0.00000189,0.00000228,0.0
 0000088,0.00000043,-0.00000094,0.00002428,-0.00000761,-0.00002517,0.00
 017647,-0.00005300,-0.00002095,-0.00000022,-0.00000007,-0.00000124,-0.
 00000099,-0.00000172,0.00000263,-0.00068457,-0.00011357,0.00008385,-0.
 00000110,0.00011459,-0.00010970,-0.00000224,-0.00000492,0.00000871,-0.
 00000183,-0.00000195,-0.00000320,-0.00000550,-0.00000305,-0.00000801,-
 0.00001496,-0.00000870,0.00002746,0.00000046,-0.00000087,0.00000136,0.
 00000022,0.00000022,-0.00000050,-0.00054019,0.00004573,0.00064435,0.00
 033938,-0.00028243,0.00152621,-0.00000015,-0.00000080,0.00000137,-0.00
 000006,-0.00000011,-0.00000065,-0.00000099,0.00000003,-0.00000011,-0.0
 0062355,0.01579078,-0.01985278,0.00976007,-0.13604039,0.23510895,-0.00
 066645,-0.00018979,0.00000081,-0.00003586,-0.00005390,0.,-0.00095460,-
 0.00181338,0.00000394,-0.00000984,0.00004312,0.00000006,-0.00363867,0.
 00542258,-0.00000158,0.00015748,0.00019152,-0.00000008,0.00001855,0.00
 066310,-0.00000061,-0.00000267,-0.00002440,-0.00000003,-0.01997751,-0.
 01821430,0.00005484,-0.00000731,0.00001214,0.00000003,-0.21588475,-0.1
 2710475,0.00044371,0.00000167,0.00000288,-0.00000340,0.00000168,0.0000
 0287,0.00000340,0.00000187,0.00002330,0.00009196,0.00000199,0.00002306
 ,-0.00009212,0.00000142,-0.00000203,-0.00000120,0.00000143,-0.00000203
 ,0.00000119,0.00028569,0.00011352,0.00011721,0.00028539,0.00011349,-0.
 00011763,-0.00001383,-0.00002416,0.00001267,-0.00001388,-0.00002417,-0
 .00001267,-0.00000492,-0.00001064,-0.00003249,-0.00000474,-0.00001051,
 0.00003254,0.00000007,0.00000200,-0.00000184,0.00000008,0.00000198,0.0
 0000184,0.00054895,0.00002123,0.00066624,0.00054830,0.00001847,-0.0006
 6802,0.00000184,-0.00000284,0.00000097,0.00000184,-0.00000284,-0.00000
 099,-0.00001127,0.00000137,0.00000002,0.00147834,0.00181637,-0.0001702
 0,0.00154190,0.00186152,0.00015990,0.23634780,0.00011357,0.00008956,-0
 .00000017,0.00000990,0.00001207,0.,0.00092090,0.00087712,-0.00000130,0
 .00000276,-0.00000350,0.,0.00254869,-0.00218359,-0.00000032,0.00002826
 ,-0.00003456,-0.00000006,0.00019070,-0.00031582,0.00000005,0.00000194,
 -0.00000002,0.,0.01630867,0.01302048,-0.00004497,-0.00000004,0.0000001
 8,0.,-0.12825612,-0.14239855,0.00034270,-0.00000028,0.00000043,0.00000
 021,-0.00000028,0.00000042,-0.00000022,-0.00007523,0.00003538,-0.00002
 988,-0.00007504,0.00003531,0.00002996,0.00000025,0.,0.00000038,0.00000
 025,0.,-0.00000039,0.00016034,0.00001572,-0.00025947,0.00016222,0.0000
 1752,0.00025947,0.00000095,0.00000134,-0.00000397,0.00000096,0.0000013
 3,0.00000396,-0.00000526,0.00000396,0.00002159,-0.00000533,0.00000391,
 -0.00002159,-0.00000007,0.00000025,-0.00000018,-0.00000006,0.00000025,
 0.00000018,-0.00078838,0.00065400,-0.00017046,-0.00078864,0.00065440,0
 .00017031,0.00000035,-0.00000041,0.00000003,0.00000035,-0.00000041,-0.
 00000003,-0.00000137,0.00000076,0.,-0.01383180,-0.01106091,0.00169334,
 -0.01376841,-0.01101837,-0.00161660,0.13714524,0.15159176,0.00000070,0
 .00000011,-0.00000381,0.00000003,0.00000006,0.00000184,0.00000075,0.00
 000172,0.00059763,0.00000001,-0.00000005,0.00000185,0.00000024,-0.0000
 0340,0.00022131,-0.00000026,-0.00000020,-0.00001127,-0.00000020,-0.000
 00041,-0.00000243,0.,0.00000003,0.00000079,-0.00000059,0.00000414,-0.0
 0143298,0.,-0.00000001,-0.00000022,0.00044476,0.00034044,-0.04638296,-
 0.00000008,0.00000017,-0.00000047,0.00000008,-0.00000017,-0.00000049,-
 0.00007638,0.00003772,-0.00001944,0.00007643,-0.00003779,-0.00001938,-
 0.00000007,-0.00000028,-0.00000017,0.00000006,0.00000028,-0.00000017,-
 0.00029784,-0.00032941,0.00022590,0.00029743,0.00032940,0.00022411,0.0
 0000089,0.00000091,0.00000084,-0.00000086,-0.00000086,0.00000087,-0.00
 000183,-0.00000241,0.00000593,0.00000186,0.00000241,0.00000589,-0.0000
 0009,0.00000031,-0.00000024,0.00000009,-0.00000032,-0.00000025,0.00027
 930,0.00026283,-0.00005886,-0.00027888,-0.00026509,-0.00005515,0.00000
 012,0.00000027,-0.00000011,-0.00000013,-0.00000026,-0.00000011,0.00000
 002,0.,-0.00000008,-0.02180119,-0.01527714,0.00066837,0.02184407,0.015
 30960,0.00056041,-0.00048845,-0.00037259,0.04547285\\-0.00000017,0.000
 00429,0.00000003,0.00000185,0.00000347,-0.00000048,-0.00000196,0.00000
 363,0.00000047,-0.00000045,0.00000487,0.00000017,0.00000057,0.00000478
 ,-0.00000018,-0.00000315,-0.00000201,0.00000084,0.00000333,-0.00000225
 ,-0.00000088,-0.00000375,-0.00000540,-0.00000132,0.00000372,-0.0000054
 1,0.00000134,0.00000245,0.00000465,0.00000100,-0.00000246,0.00000468,-
 0.00000099,-0.00000181,-0.00000141,0.00000090,-0.00000047,-0.00000115,
 -0.00000115,0.00000184,-0.00000143,-0.00000091,0.00000050,-0.00000117,
 0.00000117,0.00000047,-0.00000193,0.00000046,0.00000020,-0.00000154,-0
 .00000055,-0.00000048,-0.00000192,-0.00000048,-0.00000022,-0.00000152,
 0.00000058,0.00000030,-0.00000052,-0.00000069,0.00000147,-0.00000113,0
 .00000128,-0.00000031,-0.00000045,0.00000071,-0.00000147,-0.00000105,-
 0.00000128,0.00000061,0.00000248,0.00000163,0.00000116,0.00000098,-0.0
 0000047,-0.00000061,0.00000247,-0.00000163,-0.00000116,0.00000098,0.00
 000045,-0.00000039,-0.00000023,-0.00000040,0.00000077,-0.00000169,0.00
 000069,0.00000164,-0.00000156,-0.00000062,0.00000040,-0.00000024,0.000
 00042,-0.00000076,-0.00000170,-0.00000072,-0.00000164,-0.00000157,0.00
 000061\\\@


 QUHEN THE CAUSS IS TAKEN AWAY THE EFFECT WANISHETH.
 -- PROVERBS AND REASONS OF THE YEAR 1585
           AS REPRINTED IN PAISLEY MAGAZINE 1828.
 Job cpu time:       0 days  5 hours 55 minutes 20.9 seconds.
 Elapsed time:       0 days  0 hours 22 minutes 26.8 seconds.
 File lengths (MBytes):  RWF=    426 Int=      0 D2E=      0 Chk=     14 Scr=      1
 Normal termination of Gaussian 16 at Sun Sep 21 13:36:02 2025.
