 Entering Gaussian System, Link 0=g16
 Input=QINE0153.gjf
 Output=QINE0153.log
 Initial command:
 /usr/local/g16/l1.exe "/dados_01/scratch/Gau-2208512.inp" -scrdir="/dados_01/scratch/"
 Entering Link 1 = /usr/local/g16/l1.exe PID=   2208513.
  
 Copyright (c) 1988-2017, Gaussian, Inc.  All Rights Reserved.
  
 This is part of the Gaussian(R) 16 program.  It is based on
 the Gaussian(R) 09 system (copyright 2009, Gaussian, Inc.),
 the Gaussian(R) 03 system (copyright 2003, Gaussian, Inc.),
 the Gaussian(R) 98 system (copyright 1998, Gaussian, Inc.),
 the Gaussian(R) 94 system (copyright 1995, Gaussian, Inc.),
 the Gaussian 92(TM) system (copyright 1992, Gaussian, Inc.),
 the Gaussian 90(TM) system (copyright 1990, Gaussian, Inc.),
 the Gaussian 88(TM) system (copyright 1988, Gaussian, Inc.),
 the Gaussian 86(TM) system (copyright 1986, Carnegie Mellon
 University), and the Gaussian 82(TM) system (copyright 1983,
 Carnegie Mellon University). Gaussian is a federally registered
 trademark of Gaussian, Inc.
  
 This software contains proprietary and confidential information,
 including trade secrets, belonging to Gaussian, Inc.
  
 This software is provided under written license and may be
 used, copied, transmitted, or stored only in accord with that
 written license.
  
 The following legend is applicable only to US Government
 contracts under FAR:
  
                    RESTRICTED RIGHTS LEGEND
  
 Use, reproduction and disclosure by the US Government is
 subject to restrictions as set forth in subparagraphs (a)
 and (c) of the Commercial Computer Software - Restricted
 Rights clause in FAR 52.227-19.
  
 Gaussian, Inc.
 340 Quinnipiac St., Bldg. 40, Wallingford CT 06492
  
  
 ---------------------------------------------------------------
 Warning -- This program may not be used in any manner that
 competes with the business of Gaussian, Inc. or will provide
 assistance to any competitor of Gaussian, Inc.  The licensee
 of this program is prohibited from giving any competitor of
 Gaussian, Inc. access to this program.  By using this program,
 the user acknowledges that Gaussian, Inc. is engaged in the
 business of creating and licensing software in the field of
 computational chemistry and represents and warrants to the
 licensee that it is not a competitor of Gaussian, Inc. and that
 it will not use this program in any manner prohibited above.
 ---------------------------------------------------------------
  

 Cite this work as:
 Gaussian 16, Revision B.01,
 M. J. Frisch, G. W. Trucks, H. B. Schlegel, G. E. Scuseria, 
 M. A. Robb, J. R. Cheeseman, G. Scalmani, V. Barone, 
 G. A. Petersson, H. Nakatsuji, X. Li, M. Caricato, A. V. Marenich, 
 J. Bloino, B. G. Janesko, R. Gomperts, B. Mennucci, H. P. Hratchian, 
 J. V. Ortiz, A. F. Izmaylov, J. L. Sonnenberg, D. Williams-Young, 
 F. Ding, F. Lipparini, F. Egidi, J. Goings, B. Peng, A. Petrone, 
 T. Henderson, D. Ranasinghe, V. G. Zakrzewski, J. Gao, N. Rega, 
 G. Zheng, W. Liang, M. Hada, M. Ehara, K. Toyota, R. Fukuda, 
 J. Hasegawa, M. Ishida, T. Nakajima, Y. Honda, O. Kitao, H. Nakai, 
 T. Vreven, K. Throssell, J. A. Montgomery, Jr., J. E. Peralta, 
 F. Ogliaro, M. J. Bearpark, J. J. Heyd, E. N. Brothers, K. N. Kudin, 
 V. N. Staroverov, T. A. Keith, R. Kobayashi, J. Normand, 
 K. Raghavachari, A. P. Rendell, J. C. Burant, S. S. Iyengar, 
 J. Tomasi, M. Cossi, J. M. Millam, M. Klene, C. Adamo, R. Cammi, 
 J. W. Ochterski, R. L. Martin, K. Morokuma, O. Farkas, 
 J. B. Foresman, and D. J. Fox, Gaussian, Inc., Wallingford CT, 2016.
 
 ******************************************
 Gaussian 16:  ES64L-G16RevB.01 20-Dec-2017
                21-Sep-2025 
 ******************************************
 %nprocs=16
 Will use up to   16 processors via shared memory.
 %mem=40GB
 %chk=QINE0153.chk
 ----------------------------------------------------------------------
 # opt freq=noraman M08HX/6-311++G** scf=xqc Empiricaldispersion=pfd In
 t(Grid=ultraFine)
 ----------------------------------------------------------------------
 1/18=20,19=15,26=4,38=1/1,3;
 2/9=110,12=2,17=6,18=5,40=1/2;
 3/5=4,6=6,7=1111,11=2,25=1,30=1,71=1,74=-74,75=-5,124=11/1,2,3;
 4//1;
 5/5=2,8=3,13=1,38=5/2,8;
 6/7=2,8=2,9=2,10=2,28=1/1;
 7//1,2,3,16;
 1/18=20,19=15,26=4/3(2);
 2/9=110/2;
 99//99;
 2/9=110/2;
 3/5=4,6=6,7=1111,11=2,25=1,30=1,71=1,74=-74,75=-5,124=11/1,2,3;
 4/5=5,16=3,69=1/1;
 5/5=2,8=3,13=1,38=5/2,8;
 7//1,2,3,16;
 1/18=20,19=15,26=4/3(-5);
 2/9=110/2;
 6/7=2,8=2,9=2,10=2,19=2,28=1/1;
 99/9=1/99;
 --------
 QINE0153
 --------
 Symbolic Z-matrix:
 Charge =  0 Multiplicity = 1
 O                     2.6606    0.0001    0.001 
 O                    -2.6606    0.0001    0.0008 
 C                     1.4346   -0.0001   -0.0002 
 C                    -1.4346    0.0001    0. 
 C                    -0.6673    1.2628   -0.0004 
 C                     0.6673    1.2627   -0.0005 
 C                    -0.6674   -1.2628   -0.0003 
 C                     0.6673   -1.2628   -0.0005 
 H                    -1.2256    2.1922   -0.0004 
 H                    -1.2258   -2.1922   -0.0004 
 H                     1.2256    2.1921   -0.0005 
 H                     1.2256   -2.1922   -0.0006 
 

 GradGradGradGradGradGradGradGradGradGradGradGradGradGradGradGradGradGrad
 Berny optimization.
 Initialization pass.
                           ----------------------------
                           !    Initial Parameters    !
                           ! (Angstroms and Degrees)  !
 --------------------------                            --------------------------
 ! Name  Definition              Value          Derivative Info.                !
 --------------------------------------------------------------------------------
 ! R1    R(1,3)                  1.226          estimate D2E/DX2                !
 ! R2    R(2,4)                  1.226          estimate D2E/DX2                !
 ! R3    R(3,6)                  1.4776         estimate D2E/DX2                !
 ! R4    R(3,8)                  1.4776         estimate D2E/DX2                !
 ! R5    R(4,5)                  1.4776         estimate D2E/DX2                !
 ! R6    R(4,7)                  1.4777         estimate D2E/DX2                !
 ! R7    R(5,6)                  1.3346         estimate D2E/DX2                !
 ! R8    R(5,9)                  1.0842         estimate D2E/DX2                !
 ! R9    R(6,11)                 1.0842         estimate D2E/DX2                !
 ! R10   R(7,8)                  1.3347         estimate D2E/DX2                !
 ! R11   R(7,10)                 1.0842         estimate D2E/DX2                !
 ! R12   R(8,12)                 1.0842         estimate D2E/DX2                !
 ! A1    A(1,3,6)              121.2743         estimate D2E/DX2                !
 ! A2    A(1,3,8)              121.295          estimate D2E/DX2                !
 ! A3    A(6,3,8)              117.4307         estimate D2E/DX2                !
 ! A4    A(2,4,5)              121.2856         estimate D2E/DX2                !
 ! A5    A(2,4,7)              121.2783         estimate D2E/DX2                !
 ! A6    A(5,4,7)              117.4361         estimate D2E/DX2                !
 ! A7    A(4,5,6)              121.2813         estimate D2E/DX2                !
 ! A8    A(4,5,9)              117.7207         estimate D2E/DX2                !
 ! A9    A(6,5,9)              120.998          estimate D2E/DX2                !
 ! A10   A(3,6,5)              121.2879         estimate D2E/DX2                !
 ! A11   A(3,6,11)             117.7227         estimate D2E/DX2                !
 ! A12   A(5,6,11)             120.9894         estimate D2E/DX2                !
 ! A13   A(4,7,8)              121.2783         estimate D2E/DX2                !
 ! A14   A(4,7,10)             117.7235         estimate D2E/DX2                !
 ! A15   A(8,7,10)             120.9982         estimate D2E/DX2                !
 ! A16   A(3,8,7)              121.2856         estimate D2E/DX2                !
 ! A17   A(3,8,12)             117.7207         estimate D2E/DX2                !
 ! A18   A(7,8,12)             120.9937         estimate D2E/DX2                !
 ! D1    D(1,3,6,5)           -179.9294         estimate D2E/DX2                !
 ! D2    D(1,3,6,11)             0.0524         estimate D2E/DX2                !
 ! D3    D(8,3,6,5)              0.0312         estimate D2E/DX2                !
 ! D4    D(8,3,6,11)          -179.987          estimate D2E/DX2                !
 ! D5    D(1,3,8,7)            179.9243         estimate D2E/DX2                !
 ! D6    D(1,3,8,12)            -0.0584         estimate D2E/DX2                !
 ! D7    D(6,3,8,7)             -0.0363         estimate D2E/DX2                !
 ! D8    D(6,3,8,12)           179.981          estimate D2E/DX2                !
 ! D9    D(2,4,5,6)            179.9613         estimate D2E/DX2                !
 ! D10   D(2,4,5,9)             -0.0262         estimate D2E/DX2                !
 ! D11   D(7,4,5,6)             -0.0256         estimate D2E/DX2                !
 ! D12   D(7,4,5,9)            179.987          estimate D2E/DX2                !
 ! D13   D(2,4,7,8)           -179.9663         estimate D2E/DX2                !
 ! D14   D(2,4,7,10)             0.0365         estimate D2E/DX2                !
 ! D15   D(5,4,7,8)              0.0205         estimate D2E/DX2                !
 ! D16   D(5,4,7,10)          -179.9766         estimate D2E/DX2                !
 ! D17   D(4,5,6,3)             -0.0007         estimate D2E/DX2                !
 ! D18   D(4,5,6,11)          -179.9819         estimate D2E/DX2                !
 ! D19   D(9,5,6,3)            179.9864         estimate D2E/DX2                !
 ! D20   D(9,5,6,11)             0.0052         estimate D2E/DX2                !
 ! D21   D(4,7,8,3)              0.0104         estimate D2E/DX2                !
 ! D22   D(4,7,8,12)           179.9926         estimate D2E/DX2                !
 ! D23   D(10,7,8,3)          -179.9925         estimate D2E/DX2                !
 ! D24   D(10,7,8,12)           -0.0103         estimate D2E/DX2                !
 --------------------------------------------------------------------------------
 Trust Radius=3.00D-01 FncErr=1.00D-07 GrdErr=1.00D-06 EigMax=2.50D+02 EigMin=1.00D-04
 Number of steps in this run=     64 maximum allowed number of steps=    100.
 GradGradGradGradGradGradGradGradGradGradGradGradGradGradGradGradGradGrad

                          Input orientation:                          
 ---------------------------------------------------------------------
 Center     Atomic      Atomic             Coordinates (Angstroms)
 Number     Number       Type             X           Y           Z
 ---------------------------------------------------------------------
      1          8           0        2.660600    0.000100    0.001000
      2          8           0       -2.660600    0.000100    0.000800
      3          6           0        1.434600   -0.000100   -0.000200
      4          6           0       -1.434600    0.000100    0.000000
      5          6           0       -0.667300    1.262800   -0.000400
      6          6           0        0.667300    1.262700   -0.000500
      7          6           0       -0.667400   -1.262800   -0.000300
      8          6           0        0.667300   -1.262800   -0.000500
      9          1           0       -1.225600    2.192200   -0.000400
     10          1           0       -1.225800   -2.192200   -0.000400
     11          1           0        1.225600    2.192100   -0.000500
     12          1           0        1.225600   -2.192200   -0.000600
 ---------------------------------------------------------------------
                    Distance matrix (angstroms):
                    1          2          3          4          5
     1  O    0.000000
     2  O    5.321200   0.000000
     3  C    1.226001   4.095200   0.000000
     4  C    4.095200   1.226000   2.869200   0.000000
     5  C    3.559400   2.359588   2.452122   1.477552   0.000000
     6  C    2.359535   3.559365   1.477638   2.451967   1.334600
     7  C    3.559565   2.359611   2.452104   1.477671   2.525600
     8  C    2.359696   3.559471   1.477552   2.452122   2.856539
     9  H    4.461822   2.620025   3.447150   2.202041   1.084197
    10  H    4.462094   2.620082   3.447177   2.202221   3.499850
    11  H    2.619941   4.461773   2.202140   3.446959   2.108713
    12  H    2.620192   4.461920   2.202041   3.447150   3.939555
                    6          7          8          9         10
     6  C    0.000000
     7  C    2.856497   0.000000
     8  C    2.525500   1.334700   0.000000
     9  H    2.108801   3.499802   3.939555   0.000000
    10  H    3.939564   1.084249   2.108936   4.384400   0.000000
    11  H    1.084197   3.939516   3.499719   2.451200   5.023092
    12  H    3.499719   2.108846   1.084197   5.023081   2.451400
                   11         12
    11  H    0.000000
    12  H    4.384300   0.000000
 Stoichiometry    C6H4O2
 Framework group  C1[X(C6H4O2)]
 Deg. of freedom    30
 Full point group                 C1      NOp   1
 Largest Abelian subgroup         C1      NOp   1
 Largest concise Abelian subgroup C1      NOp   1
                         Standard orientation:                         
 ---------------------------------------------------------------------
 Center     Atomic      Atomic             Coordinates (Angstroms)
 Number     Number       Type             X           Y           Z
 ---------------------------------------------------------------------
      1          8           0        2.660614   -0.000113   -0.000980
      2          8           0       -2.660586   -0.000055   -0.000780
      3          6           0        1.434614    0.000101    0.000220
      4          6           0       -1.434586   -0.000068    0.000020
      5          6           0       -0.667299   -1.262777    0.000420
      6          6           0        0.667301   -1.262691    0.000520
      7          6           0       -0.667372    1.262823    0.000320
      8          6           0        0.667328    1.262809    0.000520
      9          1           0       -1.225609   -2.192171    0.000420
     10          1           0       -1.225762    2.192229    0.000420
     11          1           0        1.225591   -2.192097    0.000520
     12          1           0        1.225638    2.192203    0.000620
 ---------------------------------------------------------------------
 Rotational constants (GHZ):           5.2690952           1.6664072           1.2660164
 Standard basis: 6-311++G(d,p) (5D, 7F)
 There are   212 symmetry adapted cartesian basis functions of A   symmetry.
 There are   204 symmetry adapted basis functions of A   symmetry.
   204 basis functions,   324 primitive gaussians,   212 cartesian basis functions
    28 alpha electrons       28 beta electrons
       nuclear repulsion energy       323.2504356075 Hartrees.
 NAtoms=   12 NActive=   12 NUniq=   12 SFac= 1.00D+00 NAtFMM=   60 NAOKFM=F Big=F
 Integral buffers will be    131072 words long.
 Raffenetti 2 integral format.
 Two-electron integral symmetry is turned on.
 R6APFD:  NTU= -4 IXU= 1 FactS= 1.050
 Nuclear repulsion after empirical dispersion term =      323.2454705678 Hartrees.
 One-electron integrals computed using PRISM.
 NBasis=   204 RedAO= T EigKep=  2.34D-06  NBF=   204
 NBsUse=   204 1.00D-06 EigRej= -1.00D+00 NBFU=   204
 ExpMin= 3.60D-02 ExpMax= 8.59D+03 ExpMxC= 1.30D+03 IAcc=3 IRadAn=         5 AccDes= 0.00D+00
 Harris functional with IExCor= 1009 and IRadAn=       5 diagonalized for initial guess.
 HarFok:  IExCor= 1009 AccDes= 0.00D+00 IRadAn=         5 IDoV= 1 UseB2=F ITyADJ=14
 ICtDFT=  3500011 ScaDFX=  1.000000  1.000000  1.000000  1.000000
 FoFCou: FMM=F IPFlag=           0 FMFlag=      100000 FMFlg1=           0
         NFxFlg=           0 DoJE=T BraDBF=F KetDBF=T FulRan=T
         wScrn=  0.000000 ICntrl=       500 IOpCl=  0 I1Cent=   200000004 NGrid=           0
         NMat0=    1 NMatS0=      1 NMatT0=    0 NMatD0=    1 NMtDS0=    0 NMtDT0=    0
 Petite list used in FoFCou.
 Keep R1 ints in memory in canonical form, NReq=235320201.
 Requested convergence on RMS density matrix=1.00D-08 within  32 cycles.
 Requested convergence on MAX density matrix=1.00D-06.
 Requested convergence on             energy=1.00D-06.
 No special actions if energy rises.
 SCF Done:  E(RM08HX) =  -381.425872794     A.U. after   13 cycles
            NFock= 13  Conv=0.44D-08     -V/T= 2.0040
 QCSCF skips out because SCF is already converged.

 **********************************************************************

            Population analysis using the SCF Density.

 **********************************************************************

 Orbital symmetries:
       Occupied  (A) (A) (A) (A) (A) (A) (A) (A) (A) (A) (A) (A)
                 (A) (A) (A) (A) (A) (A) (A) (A) (A) (A) (A) (A)
                 (A) (A) (A) (A)
       Virtual   (A) (A) (A) (A) (A) (A) (A) (A) (A) (A) (A) (A)
                 (A) (A) (A) (A) (A) (A) (A) (A) (A) (A) (A) (A)
                 (A) (A) (A) (A) (A) (A) (A) (A) (A) (A) (A) (A)
                 (A) (A) (A) (A) (A) (A) (A) (A) (A) (A) (A) (A)
                 (A) (A) (A) (A) (A) (A) (A) (A) (A) (A) (A) (A)
                 (A) (A) (A) (A) (A) (A) (A) (A) (A) (A) (A) (A)
                 (A) (A) (A) (A) (A) (A) (A) (A) (A) (A) (A) (A)
                 (A) (A) (A) (A) (A) (A) (A) (A) (A) (A) (A) (A)
                 (A) (A) (A) (A) (A) (A) (A) (A) (A) (A) (A) (A)
                 (A) (A) (A) (A) (A) (A) (A) (A) (A) (A) (A) (A)
                 (A) (A) (A) (A) (A) (A) (A) (A) (A) (A) (A) (A)
                 (A) (A) (A) (A) (A) (A) (A) (A) (A) (A) (A) (A)
                 (A) (A) (A) (A) (A) (A) (A) (A) (A) (A) (A) (A)
                 (A) (A) (A) (A) (A) (A) (A) (A) (A) (A) (A) (A)
                 (A) (A) (A) (A) (A) (A) (A) (A)
 The electronic state is 1-A.
 Alpha  occ. eigenvalues --  -19.63660 -19.63659 -10.65602 -10.65600 -10.58355
 Alpha  occ. eigenvalues --  -10.58351 -10.58242 -10.58239  -1.19758  -1.19500
 Alpha  occ. eigenvalues --   -0.98773  -0.91279  -0.81869  -0.74283  -0.71058
 Alpha  occ. eigenvalues --   -0.60998  -0.60292  -0.57683  -0.54736  -0.53302
 Alpha  occ. eigenvalues --   -0.53045  -0.50475  -0.49485  -0.48803  -0.37856
 Alpha  occ. eigenvalues --   -0.37653  -0.37260  -0.35839
 Alpha virt. eigenvalues --   -0.11435  -0.02736  -0.01735  -0.01529  -0.00334
 Alpha virt. eigenvalues --    0.01472   0.01498   0.01767   0.03284   0.04821
 Alpha virt. eigenvalues --    0.04880   0.05196   0.05902   0.07058   0.09431
 Alpha virt. eigenvalues --    0.09865   0.10561   0.10674   0.10706   0.11270
 Alpha virt. eigenvalues --    0.11298   0.11466   0.12888   0.13128   0.13544
 Alpha virt. eigenvalues --    0.16674   0.16801   0.16940   0.18041   0.18075
 Alpha virt. eigenvalues --    0.19839   0.22929   0.23018   0.23050   0.23232
 Alpha virt. eigenvalues --    0.25874   0.25933   0.28050   0.29795   0.31787
 Alpha virt. eigenvalues --    0.32248   0.32357   0.32426   0.35338   0.35728
 Alpha virt. eigenvalues --    0.39876   0.39904   0.40441   0.41243   0.45239
 Alpha virt. eigenvalues --    0.51111   0.51388   0.51933   0.52866   0.55569
 Alpha virt. eigenvalues --    0.56505   0.56840   0.58572   0.60564   0.60897
 Alpha virt. eigenvalues --    0.62330   0.62431   0.66035   0.67913   0.73533
 Alpha virt. eigenvalues --    0.76092   0.77119   0.78075   0.81570   0.81709
 Alpha virt. eigenvalues --    0.86048   0.86816   0.87949   0.90741   0.90958
 Alpha virt. eigenvalues --    0.92762   0.93064   0.97770   0.99753   1.01212
 Alpha virt. eigenvalues --    1.02627   1.07422   1.11984   1.13657   1.15211
 Alpha virt. eigenvalues --    1.16405   1.21099   1.26211   1.26405   1.26531
 Alpha virt. eigenvalues --    1.27903   1.30910   1.38793   1.44921   1.49066
 Alpha virt. eigenvalues --    1.50106   1.55097   1.56916   1.58909   1.61940
 Alpha virt. eigenvalues --    1.62416   1.68146   1.70837   1.72057   1.73623
 Alpha virt. eigenvalues --    1.75460   1.78256   1.82451   1.85592   1.88547
 Alpha virt. eigenvalues --    1.91632   1.93262   1.94121   1.95291   2.02434
 Alpha virt. eigenvalues --    2.08738   2.10580   2.12159   2.18699   2.19609
 Alpha virt. eigenvalues --    2.24500   2.25329   2.36400   2.42977   2.52554
 Alpha virt. eigenvalues --    2.61879   2.63227   2.64981   2.66098   2.67022
 Alpha virt. eigenvalues --    2.67775   2.69088   2.70019   2.77786   2.78048
 Alpha virt. eigenvalues --    2.87694   2.88805   2.93668   2.95686   2.97983
 Alpha virt. eigenvalues --    2.98275   3.01227   3.07038   3.08294   3.22644
 Alpha virt. eigenvalues --    3.24173   3.27096   3.38607   3.41060   3.45979
 Alpha virt. eigenvalues --    3.48466   3.55191   3.61169   3.65124   3.65293
 Alpha virt. eigenvalues --    3.77523   3.97640   4.11925   4.13389   4.14279
 Alpha virt. eigenvalues --    4.24628   4.76870   5.10815   5.13682   5.30669
 Alpha virt. eigenvalues --    5.33853   5.78260   5.86411  23.69555  23.81734
 Alpha virt. eigenvalues --   23.88457  23.94076  24.24212  24.29359  49.97141
 Alpha virt. eigenvalues --   50.02119
          Condensed to atoms (all electrons):
               1          2          3          4          5          6
     1  O    8.037926   0.000869   0.429382  -0.007372  -0.040185  -0.088101
     2  O    0.000869   8.037928  -0.007398   0.429465  -0.087929  -0.040201
     3  C    0.429382  -0.007398   9.106581  -1.409184   1.768707  -2.275406
     4  C   -0.007372   0.429465  -1.409184   9.106410  -2.276517   1.768839
     5  C   -0.040185  -0.087929   1.768707  -2.276517  10.389815  -3.278053
     6  C   -0.088101  -0.040201  -2.275406   1.768839  -3.278053  10.389496
     7  C   -0.040202  -0.087995   1.768434  -2.275118  -1.093098   0.037680
     8  C   -0.087773  -0.040182  -2.276060   1.768104   0.038568  -1.093445
     9  H    0.001811  -0.013078   0.066712  -0.141180   0.534375  -0.130033
    10  H    0.001808  -0.013077   0.066725  -0.141125  -0.093711   0.046545
    11  H   -0.013086   0.001811  -0.141203   0.066763  -0.130153   0.534518
    12  H   -0.013062   0.001810  -0.141198   0.066715   0.046541  -0.093650
               7          8          9         10         11         12
     1  O   -0.040202  -0.087773   0.001811   0.001808  -0.013086  -0.013062
     2  O   -0.087995  -0.040182  -0.013078  -0.013077   0.001811   0.001810
     3  C    1.768434  -2.276060   0.066712   0.066725  -0.141203  -0.141198
     4  C   -2.275118   1.768104  -0.141180  -0.141125   0.066763   0.066715
     5  C   -1.093098   0.038568   0.534375  -0.093711  -0.130153   0.046541
     6  C    0.037680  -1.093445  -0.130033   0.046545   0.534518  -0.093650
     7  C   10.387778  -3.276161  -0.093692   0.534295   0.046526  -0.130031
     8  C   -3.276161  10.387811   0.046572  -0.129995  -0.093706   0.534364
     9  H   -0.093692   0.046572   0.392687  -0.003574  -0.010187   0.002342
    10  H    0.534295  -0.129995  -0.003574   0.392677   0.002342  -0.010180
    11  H    0.046526  -0.093706  -0.010187   0.002342   0.392708  -0.003574
    12  H   -0.130031   0.534364   0.002342  -0.010180  -0.003574   0.392683
 Mulliken charges:
               1
     1  O   -0.182013
     2  O   -0.182022
     3  C   -0.956093
     4  C   -0.955802
     5  C    0.221640
     6  C    0.221811
     7  C    0.221584
     8  C    0.221902
     9  H    0.347245
    10  H    0.347270
    11  H    0.347240
    12  H    0.347239
 Sum of Mulliken charges =  -0.00000
 Mulliken charges with hydrogens summed into heavy atoms:
               1
     1  O   -0.182013
     2  O   -0.182022
     3  C   -0.956093
     4  C   -0.955802
     5  C    0.568885
     6  C    0.569051
     7  C    0.568854
     8  C    0.569141
 Electronic spatial extent (au):  <R**2>=            867.5621
 Charge=             -0.0000 electrons
 Dipole moment (field-independent basis, Debye):
    X=             -0.0001    Y=              0.0005    Z=              0.0038  Tot=              0.0038
 Quadrupole moment (field-independent basis, Debye-Ang):
   XX=            -64.2579   YY=            -37.3125   ZZ=            -46.3442
   XY=              0.0000   XZ=              0.0018   YZ=              0.0004
 Traceless Quadrupole moment (field-independent basis, Debye-Ang):
   XX=            -14.9530   YY=             11.9924   ZZ=              2.9606
   XY=              0.0000   XZ=              0.0018   YZ=              0.0004
 Octapole moment (field-independent basis, Debye-Ang**2):
  XXX=             -0.0000  YYY=              0.0002  ZZZ=             -0.0105  XYY=             -0.0020
  XXY=              0.0028  XXZ=              0.0290  XZZ=              0.0002  YZZ=             -0.0008
  YYZ=              0.0027  XYZ=              0.0001
 Hexadecapole moment (field-independent basis, Debye-Ang**3):
 XXXX=           -935.2875 YYYY=           -272.1089 ZZZZ=            -48.8861 XXXY=             -0.0017
 XXXZ=              0.0104 YYYX=             -0.0027 YYYZ=              0.0036 ZZZX=              0.0006
 ZZZY=              0.0019 XXYY=           -163.4493 XXZZ=           -127.6112 YYZZ=            -68.3270
 XXYZ=              0.0014 YYXZ=              0.0013 ZZXY=             -0.0003
 N-N= 3.232454705678D+02 E-N=-1.536980184554D+03  KE= 3.798992418627D+02
 R6APFD:  NTU= -4 IXU= 1 FactS= 1.050
 Calling FoFJK, ICntrl=      2127 FMM=F ISym2X=0 I1Cent= 0 IOpClX= 0 NMat=1 NMatS=1 NMatT=0.
 ***** Axes restored to original set *****
 -------------------------------------------------------------------
 Center     Atomic                   Forces (Hartrees/Bohr)
 Number     Number              X              Y              Z
 -------------------------------------------------------------------
      1        8          -0.025078369   -0.000036528   -0.000055556
      2        8           0.025069686    0.000006406   -0.000027422
      3        6           0.031325793    0.000078593    0.000094003
      4        6          -0.031346430   -0.000064381    0.000032985
      5        6           0.003988642    0.003188895   -0.000002904
      6        6          -0.003982178    0.003192056   -0.000015766
      7        6           0.004066929   -0.003160809   -0.000018345
      8        6          -0.004075388   -0.003230571   -0.000014480
      9        1          -0.004463965    0.001000042    0.000002544
     10        1          -0.004445148   -0.000965869    0.000008444
     11        1           0.004475676    0.000994270   -0.000002904
     12        1           0.004464752   -0.001002104   -0.000000598
 -------------------------------------------------------------------
 Cartesian Forces:  Max     0.031346430 RMS     0.009733423

 GradGradGradGradGradGradGradGradGradGradGradGradGradGradGradGradGradGrad
 Berny optimization.
 FormGI is forming the generalized inverse of G from B-inverse, IUseBI=4.
 Internal  Forces:  Max     0.025078417 RMS     0.005316766
 Search for a local minimum.
 Step number   1 out of a maximum of   64
 All quantities printed in internal units (Hartrees-Bohrs-Radians)
 Mixed Optimization -- RFO/linear search
 Second derivative matrix not updated -- first step.
 ITU=  0
     Eigenvalues ---    0.01062   0.01062   0.01062   0.01720   0.01725
     Eigenvalues ---    0.02034   0.02038   0.02302   0.02350   0.16000
     Eigenvalues ---    0.16000   0.16000   0.16000   0.22000   0.22874
     Eigenvalues ---    0.24000   0.25000   0.25000   0.33026   0.33939
     Eigenvalues ---    0.34840   0.34851   0.35486   0.35492   0.35492
     Eigenvalues ---    0.35492   0.54580   0.58421   0.92773   0.92773
 RFO step:  Lambda=-2.39735349D-03 EMin= 1.06210096D-02
 Linear search not attempted -- first point.
 Iteration  1 RMS(Cart)=  0.01382934 RMS(Int)=  0.00013692
 Iteration  2 RMS(Cart)=  0.00013979 RMS(Int)=  0.00000060
 Iteration  3 RMS(Cart)=  0.00000001 RMS(Int)=  0.00000060
 Variable       Old X    -DE/DX   Delta X   Delta X   Delta X     New X
                                 (Linear)    (Quad)   (Total)
    R1        2.31681  -0.02508   0.00000  -0.02696  -0.02696   2.28984
    R2        2.31680  -0.02507   0.00000  -0.02695  -0.02695   2.28985
    R3        2.79233   0.00519   0.00000   0.01479   0.01479   2.80713
    R4        2.79217   0.00522   0.00000   0.01488   0.01488   2.80705
    R5        2.79217   0.00522   0.00000   0.01489   0.01489   2.80706
    R6        2.79239   0.00517   0.00000   0.01473   0.01473   2.80713
    R7        2.52203   0.00362   0.00000   0.00617   0.00617   2.52820
    R8        2.04884   0.00316   0.00000   0.00883   0.00883   2.05767
    R9        2.04884   0.00316   0.00000   0.00884   0.00884   2.05767
   R10        2.52222   0.00351   0.00000   0.00598   0.00598   2.52820
   R11        2.04893   0.00312   0.00000   0.00873   0.00873   2.05766
   R12        2.04884   0.00316   0.00000   0.00884   0.00884   2.05767
    A1        2.11664  -0.00041   0.00000  -0.00170  -0.00170   2.11494
    A2        2.11700  -0.00048   0.00000  -0.00199  -0.00200   2.11500
    A3        2.04955   0.00089   0.00000   0.00369   0.00369   2.05325
    A4        2.11683  -0.00045   0.00000  -0.00183  -0.00183   2.11500
    A5        2.11671  -0.00043   0.00000  -0.00177  -0.00177   2.11493
    A6        2.04965   0.00088   0.00000   0.00361   0.00361   2.05325
    A7        2.11676  -0.00045   0.00000  -0.00181  -0.00181   2.11494
    A8        2.05461  -0.00317   0.00000  -0.01998  -0.01998   2.03463
    A9        2.11181   0.00362   0.00000   0.02180   0.02180   2.13361
   A10        2.11687  -0.00046   0.00000  -0.00188  -0.00188   2.11499
   A11        2.05465  -0.00317   0.00000  -0.02003  -0.02003   2.03462
   A12        2.11166   0.00364   0.00000   0.02191   0.02191   2.13358
   A13        2.11671  -0.00041   0.00000  -0.00173  -0.00173   2.11498
   A14        2.05466  -0.00319   0.00000  -0.02004  -0.02004   2.03463
   A15        2.11182   0.00360   0.00000   0.02176   0.02176   2.13358
   A16        2.11683  -0.00045   0.00000  -0.00187  -0.00187   2.11496
   A17        2.05461  -0.00317   0.00000  -0.01995  -0.01995   2.03466
   A18        2.11174   0.00362   0.00000   0.02182   0.02182   2.13356
    D1       -3.14036  -0.00002   0.00000  -0.00118  -0.00118  -3.14153
    D2        0.00092  -0.00001   0.00000  -0.00112  -0.00112  -0.00020
    D3        0.00055   0.00001   0.00000   0.00057   0.00058   0.00112
    D4       -3.14137   0.00001   0.00000   0.00063   0.00063  -3.14073
    D5        3.14027   0.00002   0.00000   0.00124   0.00124   3.14151
    D6       -0.00102   0.00002   0.00000   0.00121   0.00121   0.00019
    D7       -0.00063  -0.00001   0.00000  -0.00051  -0.00051  -0.00115
    D8        3.14126  -0.00001   0.00000  -0.00054  -0.00054   3.14072
    D9        3.14092   0.00001   0.00000   0.00048   0.00048   3.14139
   D10       -0.00046   0.00000   0.00000   0.00031   0.00031  -0.00015
   D11       -0.00045  -0.00000   0.00000  -0.00022  -0.00022  -0.00066
   D12        3.14137  -0.00000   0.00000  -0.00039  -0.00039   3.14098
   D13       -3.14100  -0.00001   0.00000  -0.00042  -0.00042  -3.14142
   D14        0.00064  -0.00001   0.00000  -0.00048  -0.00048   0.00016
   D15        0.00036   0.00000   0.00000   0.00028   0.00028   0.00064
   D16       -3.14118   0.00000   0.00000   0.00021   0.00021  -3.14097
   D17       -0.00001  -0.00000   0.00000  -0.00021  -0.00021  -0.00022
   D18       -3.14128  -0.00001   0.00000  -0.00027  -0.00027  -3.14154
   D19        3.14135  -0.00000   0.00000  -0.00004  -0.00004   3.14131
   D20        0.00009  -0.00000   0.00000  -0.00010  -0.00009  -0.00000
   D21        0.00018   0.00000   0.00000   0.00009   0.00009   0.00027
   D22        3.14146   0.00000   0.00000   0.00011   0.00011   3.14157
   D23       -3.14146   0.00000   0.00000   0.00016   0.00016  -3.14130
   D24       -0.00018   0.00000   0.00000   0.00018   0.00018  -0.00000
         Item               Value     Threshold  Converged?
 Maximum Force            0.025078     0.000450     NO 
 RMS     Force            0.005317     0.000300     NO 
 Maximum Displacement     0.045955     0.001800     NO 
 RMS     Displacement     0.013816     0.001200     NO 
 Predicted change in Energy=-1.206208D-03
 GradGradGradGradGradGradGradGradGradGradGradGradGradGradGradGradGradGrad

                          Input orientation:                          
 ---------------------------------------------------------------------
 Center     Atomic      Atomic             Coordinates (Angstroms)
 Number     Number       Type             X           Y           Z
 ---------------------------------------------------------------------
      1          8           0        2.649674   -0.000038    0.000394
      2          8           0       -2.649723    0.000034    0.000462
      3          6           0        1.437942   -0.000053    0.000382
      4          6           0       -1.437986    0.000054    0.000209
      5          6           0       -0.668943    1.270914   -0.000262
      6          6           0        0.668924    1.270862   -0.000315
      7          6           0       -0.668970   -1.270862   -0.000254
      8          6           0        0.668896   -1.270901   -0.000335
      9          1           0       -1.249893    2.191857   -0.000510
     10          1           0       -1.249953   -2.191778   -0.000504
     11          1           0        1.249918    2.191780   -0.000613
     12          1           0        1.249813   -2.191869   -0.000655
 ---------------------------------------------------------------------
                    Distance matrix (angstroms):
                    1          2          3          4          5
     1  O    0.000000
     2  O    5.299398   0.000000
     3  C    1.211733   4.087665   0.000000
     4  C    4.087660   1.211737   2.875927   0.000000
     5  C    3.553666   2.353429   2.460552   1.485434   0.000000
     6  C    2.353414   3.553650   1.485467   2.460492   1.337867
     7  C    3.553645   2.353414   2.460494   1.485467   2.541776
     8  C    2.353418   3.553661   1.485425   2.460544   2.872392
     9  H    4.473369   2.600695   3.468274   2.199859   1.088871
    10  H    4.473345   2.600653   3.468204   2.199883   3.511099
    11  H    2.600651   4.473360   2.199882   3.468211   2.128384
    12  H    2.600718   4.473345   2.199876   3.468255   3.958850
                    6          7          8          9         10
     6  C    0.000000
     7  C    2.872337   0.000000
     8  C    2.541763   1.337865   0.000000
     9  H    2.128402   3.511110   3.958844   0.000000
    10  H    3.958783   1.088866   2.128378   4.383636   0.000000
    11  H    1.088873   3.958790   3.511089   2.499811   5.046279
    12  H    3.511116   2.128375   1.088874   5.046344   2.499766
                   11         12
    11  H    0.000000
    12  H    4.383649   0.000000
 Stoichiometry    C6H4O2
 Framework group  C1[X(C6H4O2)]
 Deg. of freedom    30
 Full point group                 C1      NOp   1
 Largest Abelian subgroup         C1      NOp   1
 Largest concise Abelian subgroup C1      NOp   1
                         Standard orientation:                         
 ---------------------------------------------------------------------
 Center     Atomic      Atomic             Coordinates (Angstroms)
 Number     Number       Type             X           Y           Z
 ---------------------------------------------------------------------
      1          8           0        2.649698   -0.000023   -0.000374
      2          8           0       -2.649699    0.000029   -0.000442
      3          6           0        1.437965    0.000020   -0.000362
      4          6           0       -1.437962   -0.000020   -0.000189
      5          6           0       -0.668948   -1.270898    0.000282
      6          6           0        0.668919   -1.270877    0.000335
      7          6           0       -0.668917    1.270878    0.000274
      8          6           0        0.668949    1.270886    0.000355
      9          1           0       -1.249920   -2.191828    0.000530
     10          1           0       -1.249878    2.191808    0.000524
     11          1           0        1.249891   -2.191808    0.000633
     12          1           0        1.249887    2.191841    0.000675
 ---------------------------------------------------------------------
 Rotational constants (GHZ):           5.2158031           1.6734419           1.2669522
 Standard basis: 6-311++G(d,p) (5D, 7F)
 There are   212 symmetry adapted cartesian basis functions of A   symmetry.
 There are   204 symmetry adapted basis functions of A   symmetry.
   204 basis functions,   324 primitive gaussians,   212 cartesian basis functions
    28 alpha electrons       28 beta electrons
       nuclear repulsion energy       323.1937647879 Hartrees.
 NAtoms=   12 NActive=   12 NUniq=   12 SFac= 1.00D+00 NAtFMM=   60 NAOKFM=F Big=F
 Integral buffers will be    131072 words long.
 Raffenetti 2 integral format.
 Two-electron integral symmetry is turned on.
 R6APFD:  NTU= -4 IXU= 1 FactS= 1.050
 Nuclear repulsion after empirical dispersion term =      323.1887022331 Hartrees.
 One-electron integrals computed using PRISM.
 NBasis=   204 RedAO= T EigKep=  2.44D-06  NBF=   204
 NBsUse=   204 1.00D-06 EigRej= -1.00D+00 NBFU=   204
 Initial guess from the checkpoint file:  "QINE0153.chk"
 B after Tr=     0.000000    0.000000    0.000000
         Rot=    1.000000   -0.000006    0.000006    0.000005 Ang=  -0.00 deg.
 ExpMin= 3.60D-02 ExpMax= 8.59D+03 ExpMxC= 1.30D+03 IAcc=3 IRadAn=         5 AccDes= 0.00D+00
 Harris functional with IExCor= 1009 and IRadAn=       5 diagonalized for initial guess.
 HarFok:  IExCor= 1009 AccDes= 0.00D+00 IRadAn=         5 IDoV= 1 UseB2=F ITyADJ=14
 ICtDFT=  3500011 ScaDFX=  1.000000  1.000000  1.000000  1.000000
 FoFCou: FMM=F IPFlag=           0 FMFlag=      100000 FMFlg1=           0
         NFxFlg=           0 DoJE=T BraDBF=F KetDBF=T FulRan=T
         wScrn=  0.000000 ICntrl=       500 IOpCl=  0 I1Cent=   200000004 NGrid=           0
         NMat0=    1 NMatS0=      1 NMatT0=    0 NMatD0=    1 NMtDS0=    0 NMtDT0=    0
 Petite list used in FoFCou.
 Keep R1 ints in memory in canonical form, NReq=235320201.
 Requested convergence on RMS density matrix=1.00D-08 within  32 cycles.
 Requested convergence on MAX density matrix=1.00D-06.
 Requested convergence on             energy=1.00D-06.
 No special actions if energy rises.
 SCF Done:  E(RM08HX) =  -381.427362727     A.U. after   11 cycles
            NFock= 11  Conv=0.75D-08     -V/T= 2.0040
 QCSCF skips out because SCF is already converged.
 R6APFD:  NTU= -4 IXU= 1 FactS= 1.050
 Calling FoFJK, ICntrl=      2127 FMM=F ISym2X=0 I1Cent= 0 IOpClX= 0 NMat=1 NMatS=1 NMatT=0.
 ***** Axes restored to original set *****
 -------------------------------------------------------------------
 Center     Atomic                   Forces (Hartrees/Bohr)
 Number     Number              X              Y              Z
 -------------------------------------------------------------------
      1        8          -0.004753311   -0.000003398    0.000043291
      2        8           0.004760634    0.000004798    0.000013704
      3        6           0.008292335    0.000019228   -0.000135640
      4        6          -0.008298692   -0.000018972   -0.000044265
      5        6           0.005004094    0.002156454    0.000020774
      6        6          -0.004999592    0.002154520    0.000047346
      7        6           0.005000132   -0.002145024    0.000018861
      8        6          -0.005005663   -0.002168128    0.000048486
      9        1          -0.001058461   -0.000613502   -0.000006723
     10        1          -0.001062750    0.000612298   -0.000006575
     11        1           0.001060222   -0.000615654    0.000000219
     12        1           0.001061052    0.000617381    0.000000521
 -------------------------------------------------------------------
 Cartesian Forces:  Max     0.008298692 RMS     0.002923171

 GradGradGradGradGradGradGradGradGradGradGradGradGradGradGradGradGradGrad
 Berny optimization.
 Using GEDIIS/GDIIS optimizer.
 FormGI is forming the generalized inverse of G from B-inverse, IUseBI=4.
 Internal  Forces:  Max     0.004760631 RMS     0.001275784
 Search for a local minimum.
 Step number   2 out of a maximum of   64
 All quantities printed in internal units (Hartrees-Bohrs-Radians)
 Mixed Optimization -- RFO/linear search
 Update second derivatives using D2CorX and points    1    2
 DE= -1.49D-03 DEPred=-1.21D-03 R= 1.24D+00
 TightC=F SS=  1.41D+00  RLast= 7.93D-02 DXNew= 5.0454D-01 2.3781D-01
 Trust test= 1.24D+00 RLast= 7.93D-02 DXMaxT set to 3.00D-01
 ITU=  1  0
 Use linear search instead of GDIIS.
     Eigenvalues ---    0.01062   0.01062   0.01063   0.01722   0.01740
     Eigenvalues ---    0.02051   0.02060   0.02304   0.02369   0.13554
     Eigenvalues ---    0.16000   0.16000   0.16000   0.22000   0.22874
     Eigenvalues ---    0.24173   0.25000   0.25000   0.31884   0.33030
     Eigenvalues ---    0.33956   0.34845   0.35487   0.35492   0.35492
     Eigenvalues ---    0.35990   0.54617   0.60080   0.87412   0.92773
 RFO step:  Lambda=-1.12504436D-04 EMin= 1.06210763D-02
 Quartic linear search produced a step of  0.30296.
 Iteration  1 RMS(Cart)=  0.00509090 RMS(Int)=  0.00003102
 Iteration  2 RMS(Cart)=  0.00003248 RMS(Int)=  0.00000151
 Iteration  3 RMS(Cart)=  0.00000000 RMS(Int)=  0.00000151
 Variable       Old X    -DE/DX   Delta X   Delta X   Delta X     New X
                                 (Linear)    (Quad)   (Total)
    R1        2.28984  -0.00475  -0.00817   0.00031  -0.00786   2.28199
    R2        2.28985  -0.00476  -0.00817   0.00030  -0.00787   2.28199
    R3        2.80713   0.00223   0.00448   0.00441   0.00889   2.81601
    R4        2.80705   0.00224   0.00451   0.00445   0.00896   2.81600
    R5        2.80706   0.00224   0.00451   0.00443   0.00894   2.81600
    R6        2.80713   0.00223   0.00446   0.00442   0.00888   2.81601
    R7        2.52820  -0.00217   0.00187  -0.00646  -0.00459   2.52361
    R8        2.05767   0.00005   0.00268  -0.00217   0.00051   2.05817
    R9        2.05767   0.00005   0.00268  -0.00217   0.00050   2.05817
   R10        2.52820  -0.00217   0.00181  -0.00640  -0.00459   2.52361
   R11        2.05766   0.00005   0.00264  -0.00213   0.00051   2.05817
   R12        2.05767   0.00004   0.00268  -0.00218   0.00050   2.05817
    A1        2.11494   0.00017  -0.00051   0.00138   0.00086   2.11580
    A2        2.11500   0.00016  -0.00060   0.00142   0.00081   2.11581
    A3        2.05325  -0.00033   0.00112  -0.00279  -0.00168   2.05157
    A4        2.11500   0.00016  -0.00056   0.00137   0.00081   2.11581
    A5        2.11493   0.00017  -0.00054   0.00141   0.00087   2.11580
    A6        2.05325  -0.00033   0.00109  -0.00278  -0.00169   2.05157
    A7        2.11494   0.00017  -0.00055   0.00141   0.00086   2.11580
    A8        2.03463  -0.00134  -0.00605  -0.00518  -0.01124   2.02340
    A9        2.13361   0.00117   0.00660   0.00377   0.01038   2.14399
   A10        2.11499   0.00016  -0.00057   0.00140   0.00083   2.11582
   A11        2.03462  -0.00134  -0.00607  -0.00518  -0.01124   2.02337
   A12        2.13358   0.00118   0.00664   0.00378   0.01042   2.14400
   A13        2.11498   0.00017  -0.00052   0.00137   0.00084   2.11582
   A14        2.03463  -0.00134  -0.00607  -0.00518  -0.01125   2.02337
   A15        2.13358   0.00118   0.00659   0.00382   0.01041   2.14399
   A16        2.11496   0.00017  -0.00057   0.00141   0.00084   2.11580
   A17        2.03466  -0.00135  -0.00604  -0.00522  -0.01126   2.02340
   A18        2.13356   0.00118   0.00661   0.00381   0.01042   2.14398
    D1       -3.14153   0.00002  -0.00036   0.00299   0.00263  -3.13890
    D2       -0.00020   0.00002  -0.00034   0.00344   0.00311   0.00290
    D3        0.00112  -0.00003   0.00017  -0.00315  -0.00297  -0.00185
    D4       -3.14073  -0.00002   0.00019  -0.00269  -0.00250   3.13996
    D5        3.14151  -0.00002   0.00038  -0.00299  -0.00262   3.13889
    D6        0.00019  -0.00002   0.00037  -0.00348  -0.00311  -0.00292
    D7       -0.00115   0.00003  -0.00016   0.00315   0.00299   0.00184
    D8        3.14072   0.00002  -0.00016   0.00265   0.00249  -3.13997
    D9        3.14139  -0.00001   0.00014  -0.00106  -0.00091   3.14048
   D10       -0.00015  -0.00001   0.00009  -0.00112  -0.00103  -0.00118
   D11       -0.00066   0.00001  -0.00007   0.00200   0.00194   0.00127
   D12        3.14098   0.00001  -0.00012   0.00193   0.00182  -3.14039
   D13       -3.14142   0.00001  -0.00013   0.00105   0.00093  -3.14049
   D14        0.00016   0.00001  -0.00015   0.00118   0.00104   0.00119
   D15        0.00064  -0.00001   0.00009  -0.00200  -0.00192  -0.00128
   D16       -3.14097  -0.00001   0.00006  -0.00187  -0.00181   3.14041
   D17       -0.00022   0.00001  -0.00006   0.00059   0.00053   0.00030
   D18       -3.14154  -0.00000  -0.00008   0.00011   0.00003  -3.14152
   D19        3.14131   0.00001  -0.00001   0.00066   0.00065  -3.14122
   D20       -0.00000   0.00000  -0.00003   0.00018   0.00015   0.00015
   D21        0.00027  -0.00001   0.00003  -0.00059  -0.00056  -0.00029
   D22        3.14157  -0.00000   0.00003  -0.00007  -0.00003   3.14154
   D23       -3.14130  -0.00001   0.00005  -0.00073  -0.00068   3.14121
   D24       -0.00000  -0.00000   0.00005  -0.00021  -0.00015  -0.00015
         Item               Value     Threshold  Converged?
 Maximum Force            0.004761     0.000450     NO 
 RMS     Force            0.001276     0.000300     NO 
 Maximum Displacement     0.016052     0.001800     NO 
 RMS     Displacement     0.005084     0.001200     NO 
 Predicted change in Energy=-1.468128D-04
 GradGradGradGradGradGradGradGradGradGradGradGradGradGradGradGradGradGrad

                          Input orientation:                          
 ---------------------------------------------------------------------
 Center     Atomic      Atomic             Coordinates (Angstroms)
 Number     Number       Type             X           Y           Z
 ---------------------------------------------------------------------
      1          8           0        2.647812   -0.000045    0.000862
      2          8           0       -2.647864    0.000044    0.000302
      3          6           0        1.440240   -0.000032   -0.001760
      4          6           0       -1.440289    0.000031   -0.000999
      5          6           0       -0.667724    1.274289   -0.000260
      6          6           0        0.667715    1.274257   -0.000433
      7          6           0       -0.667763   -1.274254   -0.000259
      8          6           0        0.667673   -1.274289   -0.000441
      9          1           0       -1.258360    2.189370    0.000352
     10          1           0       -1.258447   -2.189303    0.000339
     11          1           0        1.258402    2.189305    0.000161
     12          1           0        1.258304   -2.189372    0.000135
 ---------------------------------------------------------------------
                    Distance matrix (angstroms):
                    1          2          3          4          5
     1  O    0.000000
     2  O    5.295676   0.000000
     3  C    1.207575   4.088104   0.000000
     4  C    4.088102   1.207575   2.880529   0.000000
     5  C    3.552000   2.354709   2.463211   1.490165   0.000000
     6  C    2.354704   3.551997   1.490171   2.463196   1.335439
     7  C    3.551992   2.354705   2.463193   1.490168   2.548544
     8  C    2.354708   3.552001   1.490166   2.463209   2.877245
     9  H    4.477914   2.593042   3.475043   2.196885   1.089139
    10  H    4.477914   2.593014   3.475028   2.196873   3.513606
    11  H    2.593012   4.477921   2.196876   3.475033   2.132420
    12  H    2.593046   4.477911   2.196888   3.475039   3.963147
                    6          7          8          9         10
     6  C    0.000000
     7  C    2.877223   0.000000
     8  C    2.548546   1.335436   0.000000
     9  H    2.132416   3.513616   3.963147   0.000000
    10  H    3.963124   1.089138   2.132414   4.378673   0.000000
    11  H    1.089139   3.963124   3.513608   2.516762   5.050419
    12  H    3.513620   2.132410   1.089138   5.050443   2.516751
                   11         12
    11  H    0.000000
    12  H    4.378677   0.000000
 Stoichiometry    C6H4O2
 Framework group  C1[X(C6H4O2)]
 Deg. of freedom    30
 Full point group                 C1      NOp   1
 Largest Abelian subgroup         C1      NOp   1
 Largest concise Abelian subgroup C1      NOp   1
                         Standard orientation:                         
 ---------------------------------------------------------------------
 Center     Atomic      Atomic             Coordinates (Angstroms)
 Number     Number       Type             X           Y           Z
 ---------------------------------------------------------------------
      1          8           0        2.647837   -0.000006   -0.001123
      2          8           0       -2.647839    0.000007   -0.000563
      3          6           0        1.440265    0.000004    0.001499
      4          6           0       -1.440265   -0.000004    0.000738
      5          6           0       -0.667723   -1.274276   -0.000000
      6          6           0        0.667716   -1.274270    0.000172
      7          6           0       -0.667713    1.274267   -0.000002
      8          6           0        0.667722    1.274277    0.000180
      9          1           0       -1.258377   -2.189345   -0.000613
     10          1           0       -1.258380    2.189327   -0.000600
     11          1           0        1.258385   -2.189329   -0.000422
     12          1           0        1.258371    2.189348   -0.000396
 ---------------------------------------------------------------------
 Rotational constants (GHZ):           5.1959585           1.6742651           1.2662491
 Standard basis: 6-311++G(d,p) (5D, 7F)
 There are   212 symmetry adapted cartesian basis functions of A   symmetry.
 There are   204 symmetry adapted basis functions of A   symmetry.
   204 basis functions,   324 primitive gaussians,   212 cartesian basis functions
    28 alpha electrons       28 beta electrons
       nuclear repulsion energy       323.1069042697 Hartrees.
 NAtoms=   12 NActive=   12 NUniq=   12 SFac= 1.00D+00 NAtFMM=   60 NAOKFM=F Big=F
 Integral buffers will be    131072 words long.
 Raffenetti 2 integral format.
 Two-electron integral symmetry is turned on.
 R6APFD:  NTU= -4 IXU= 1 FactS= 1.050
 Nuclear repulsion after empirical dispersion term =      323.1018212662 Hartrees.
 One-electron integrals computed using PRISM.
 NBasis=   204 RedAO= T EigKep=  2.48D-06  NBF=   204
 NBsUse=   204 1.00D-06 EigRej= -1.00D+00 NBFU=   204
 Initial guess from the checkpoint file:  "QINE0153.chk"
 B after Tr=    -0.000000   -0.000000    0.000000
         Rot=    1.000000    0.000000   -0.000014   -0.000002 Ang=   0.00 deg.
 Keep R1 ints in memory in canonical form, NReq=235320201.
 Requested convergence on RMS density matrix=1.00D-08 within  32 cycles.
 Requested convergence on MAX density matrix=1.00D-06.
 Requested convergence on             energy=1.00D-06.
 No special actions if energy rises.
 SCF Done:  E(RM08HX) =  -381.427514420     A.U. after   10 cycles
            NFock= 10  Conv=0.56D-08     -V/T= 2.0040
 QCSCF skips out because SCF is already converged.
 R6APFD:  NTU= -4 IXU= 1 FactS= 1.050
 Calling FoFJK, ICntrl=      2127 FMM=F ISym2X=0 I1Cent= 0 IOpClX= 0 NMat=1 NMatS=1 NMatT=0.
 ***** Axes restored to original set *****
 -------------------------------------------------------------------
 Center     Atomic                   Forces (Hartrees/Bohr)
 Number     Number              X              Y              Z
 -------------------------------------------------------------------
      1        8           0.000676795   -0.000000595   -0.000194952
      2        8          -0.000676933    0.000000474   -0.000094110
      3        6          -0.000211436    0.000001589    0.000541512
      4        6           0.000211985   -0.000000676    0.000249140
      5        6           0.000812989    0.000254538   -0.000106378
      6        6          -0.000810797    0.000253316   -0.000183609
      7        6           0.000807687   -0.000254511   -0.000107769
      8        6          -0.000810328   -0.000253839   -0.000183811
      9        1          -0.000149849   -0.000116718    0.000029831
     10        1          -0.000149550    0.000115661    0.000030338
     11        1           0.000148997   -0.000116036    0.000009694
     12        1           0.000150440    0.000116798    0.000010114
 -------------------------------------------------------------------
 Cartesian Forces:  Max     0.000812989 RMS     0.000354722

 GradGradGradGradGradGradGradGradGradGradGradGradGradGradGradGradGradGrad
 Berny optimization.
 Using GEDIIS/GDIIS optimizer.
 FormGI is forming the generalized inverse of G from B-inverse, IUseBI=4.
 Internal  Forces:  Max     0.000676831 RMS     0.000188928
 Search for a local minimum.
 Step number   3 out of a maximum of   64
 All quantities printed in internal units (Hartrees-Bohrs-Radians)
 Mixed Optimization -- En-DIIS/RFO-DIIS
 Update second derivatives using D2CorX and points    1    2    3
 DE= -1.52D-04 DEPred=-1.47D-04 R= 1.03D+00
 TightC=F SS=  1.41D+00  RLast= 3.90D-02 DXNew= 5.0454D-01 1.1690D-01
 Trust test= 1.03D+00 RLast= 3.90D-02 DXMaxT set to 3.00D-01
 ITU=  1  1  0
 Use linear search instead of GDIIS.
     Eigenvalues ---    0.01062   0.01062   0.01077   0.01724   0.01751
     Eigenvalues ---    0.02059   0.02072   0.02306   0.02379   0.12506
     Eigenvalues ---    0.16000   0.16000   0.16000   0.22000   0.22870
     Eigenvalues ---    0.24130   0.25000   0.25000   0.31360   0.33033
     Eigenvalues ---    0.33958   0.34845   0.35487   0.35492   0.35492
     Eigenvalues ---    0.35982   0.54634   0.59407   0.92773   0.94675
 RFO step:  Lambda=-1.27688039D-05 EMin= 1.06205936D-02
 Quartic linear search produced a step of  0.06073.
 Iteration  1 RMS(Cart)=  0.00248582 RMS(Int)=  0.00001537
 Iteration  2 RMS(Cart)=  0.00001254 RMS(Int)=  0.00001114
 Iteration  3 RMS(Cart)=  0.00000000 RMS(Int)=  0.00001114
 Variable       Old X    -DE/DX   Delta X   Delta X   Delta X     New X
                                 (Linear)    (Quad)   (Total)
    R1        2.28199   0.00068  -0.00048   0.00067   0.00020   2.28218
    R2        2.28199   0.00068  -0.00048   0.00067   0.00020   2.28218
    R3        2.81601   0.00024   0.00054   0.00066   0.00120   2.81721
    R4        2.81600   0.00024   0.00054   0.00066   0.00121   2.81721
    R5        2.81600   0.00024   0.00054   0.00066   0.00120   2.81721
    R6        2.81601   0.00024   0.00054   0.00066   0.00120   2.81721
    R7        2.52361  -0.00043  -0.00028  -0.00061  -0.00088   2.52273
    R8        2.05817  -0.00002   0.00003   0.00003   0.00006   2.05823
    R9        2.05817  -0.00002   0.00003   0.00003   0.00006   2.05823
   R10        2.52361  -0.00043  -0.00028  -0.00060  -0.00088   2.52273
   R11        2.05817  -0.00002   0.00003   0.00003   0.00006   2.05823
   R12        2.05817  -0.00002   0.00003   0.00003   0.00006   2.05823
    A1        2.11580   0.00004   0.00005   0.00015   0.00016   2.11596
    A2        2.11581   0.00004   0.00005   0.00015   0.00015   2.11596
    A3        2.05157  -0.00007  -0.00010  -0.00023  -0.00037   2.05120
    A4        2.11581   0.00004   0.00005   0.00013   0.00016   2.11598
    A5        2.11580   0.00004   0.00005   0.00013   0.00017   2.11597
    A6        2.05157  -0.00007  -0.00010  -0.00024  -0.00036   2.05121
    A7        2.11580   0.00004   0.00005   0.00013   0.00018   2.11598
    A8        2.02340  -0.00021  -0.00068  -0.00129  -0.00197   2.02142
    A9        2.14399   0.00018   0.00063   0.00116   0.00180   2.14578
   A10        2.11582   0.00004   0.00005   0.00012   0.00017   2.11599
   A11        2.02337  -0.00021  -0.00068  -0.00128  -0.00196   2.02141
   A12        2.14400   0.00018   0.00063   0.00116   0.00179   2.14579
   A13        2.11582   0.00003   0.00005   0.00012   0.00017   2.11599
   A14        2.02337  -0.00021  -0.00068  -0.00128  -0.00196   2.02141
   A15        2.14399   0.00018   0.00063   0.00116   0.00180   2.14579
   A16        2.11580   0.00004   0.00005   0.00012   0.00018   2.11598
   A17        2.02340  -0.00021  -0.00068  -0.00129  -0.00198   2.02142
   A18        2.14398   0.00018   0.00063   0.00117   0.00180   2.14578
    D1       -3.13890  -0.00009   0.00016  -0.00891  -0.00875   3.13553
    D2        0.00290  -0.00011   0.00019  -0.01015  -0.00996  -0.00706
    D3       -0.00185   0.00010  -0.00018   0.00856   0.00838   0.00653
    D4        3.13996   0.00008  -0.00015   0.00732   0.00717  -3.13606
    D5        3.13889   0.00009  -0.00016   0.00892   0.00876  -3.13553
    D6       -0.00292   0.00011  -0.00019   0.01017   0.00998   0.00706
    D7        0.00184  -0.00010   0.00018  -0.00855  -0.00837  -0.00653
    D8       -3.13997  -0.00008   0.00015  -0.00730  -0.00715   3.13606
    D9        3.14048   0.00004  -0.00006   0.00437   0.00432  -3.13838
   D10       -0.00118   0.00005  -0.00006   0.00481   0.00474   0.00357
   D11        0.00127  -0.00006   0.00012  -0.00611  -0.00599  -0.00472
   D12       -3.14039  -0.00005   0.00011  -0.00568  -0.00556   3.13723
   D13       -3.14049  -0.00004   0.00006  -0.00437  -0.00431   3.13838
   D14        0.00119  -0.00005   0.00006  -0.00483  -0.00476  -0.00357
   D15       -0.00128   0.00006  -0.00012   0.00611   0.00600   0.00472
   D16        3.14041   0.00005  -0.00011   0.00566   0.00555  -3.13723
   D17        0.00030  -0.00002   0.00003  -0.00127  -0.00124  -0.00094
   D18       -3.14152   0.00000   0.00000   0.00006   0.00006  -3.14146
   D19       -3.14122  -0.00003   0.00004  -0.00174  -0.00170   3.14027
   D20        0.00015  -0.00001   0.00001  -0.00041  -0.00040  -0.00025
   D21       -0.00029   0.00002  -0.00003   0.00126   0.00123   0.00094
   D22        3.14154  -0.00000  -0.00000  -0.00008  -0.00008   3.14146
   D23        3.14121   0.00003  -0.00004   0.00175   0.00171  -3.14027
   D24       -0.00015   0.00001  -0.00001   0.00041   0.00040   0.00025
         Item               Value     Threshold  Converged?
 Maximum Force            0.000677     0.000450     NO 
 RMS     Force            0.000189     0.000300     YES
 Maximum Displacement     0.011914     0.001800     NO 
 RMS     Displacement     0.002486     0.001200     NO 
 Predicted change in Energy=-6.888400D-06
 GradGradGradGradGradGradGradGradGradGradGradGradGradGradGradGradGradGrad

                          Input orientation:                          
 ---------------------------------------------------------------------
 Center     Atomic      Atomic             Coordinates (Angstroms)
 Number     Number       Type             X           Y           Z
 ---------------------------------------------------------------------
      1          8           0        2.648222   -0.000050   -0.001568
      2          8           0       -2.648282    0.000049   -0.000453
      3          6           0        1.440558   -0.000029    0.004545
      4          6           0       -1.440608    0.000029    0.003006
      5          6           0       -0.667486    1.274692   -0.000016
      6          6           0        0.667484    1.274662    0.000143
      7          6           0       -0.667533   -1.274662   -0.000025
      8          6           0        0.667437   -1.274691    0.000133
      9          1           0       -1.259782    2.188733   -0.001970
     10          1           0       -1.259872   -2.188675   -0.001983
     11          1           0        1.259826    2.188673   -0.001897
     12          1           0        1.259734   -2.188731   -0.001914
 ---------------------------------------------------------------------
                    Distance matrix (angstroms):
                    1          2          3          4          5
     1  O    0.000000
     2  O    5.296505   0.000000
     3  C    1.207680   4.088843   0.000000
     4  C    4.088833   1.207679   2.881167   0.000000
     5  C    3.552308   2.355476   2.463491   1.490802   0.000000
     6  C    2.355465   3.552316   1.490805   2.463483   1.334971
     7  C    3.552305   2.355474   2.463485   1.490802   2.549354
     8  C    2.355466   3.552317   1.490804   2.463488   2.877737
     9  H    4.479204   2.591963   3.475998   2.196167   1.089169
    10  H    4.479205   2.591949   3.475994   2.196159   3.513664
    11  H    2.591940   4.479217   2.196161   3.475993   2.133049
    12  H    2.591953   4.479213   2.196168   3.475995   3.963518
                    6          7          8          9         10
     6  C    0.000000
     7  C    2.877728   0.000000
     8  C    2.549352   1.334970   0.000000
     9  H    2.133046   3.513669   3.963519   0.000000
    10  H    3.963509   1.089169   2.133047   4.377408   0.000000
    11  H    1.089169   3.963509   3.513661   2.519608   5.050748
    12  H    3.513666   2.133046   1.089169   5.050757   2.519606
                   11         12
    11  H    0.000000
    12  H    4.377404   0.000000
 Stoichiometry    C6H4O2
 Framework group  C1[X(C6H4O2)]
 Deg. of freedom    30
 Full point group                 C1      NOp   1
 Largest Abelian subgroup         C1      NOp   1
 Largest concise Abelian subgroup C1      NOp   1
                         Standard orientation:                         
 ---------------------------------------------------------------------
 Center     Atomic      Atomic             Coordinates (Angstroms)
 Number     Number       Type             X           Y           Z
 ---------------------------------------------------------------------
      1          8           0        2.648248   -0.000002    0.001975
      2          8           0       -2.648256    0.000003    0.000860
      3          6           0        1.440584    0.000001   -0.004138
      4          6           0       -1.440582   -0.000001   -0.002599
      5          6           0       -0.667485   -1.274679    0.000423
      6          6           0        0.667486   -1.274675    0.000264
      7          6           0       -0.667482    1.274675    0.000432
      8          6           0        0.667488    1.274678    0.000274
      9          1           0       -1.259799   -2.188709    0.002377
     10          1           0       -1.259803    2.188699    0.002390
     11          1           0        1.259809   -2.188698    0.002304
     12          1           0        1.259803    2.188706    0.002321
 ---------------------------------------------------------------------
 Rotational constants (GHZ):           5.1938999           1.6737547           1.2658370
 Standard basis: 6-311++G(d,p) (5D, 7F)
 There are   212 symmetry adapted cartesian basis functions of A   symmetry.
 There are   204 symmetry adapted basis functions of A   symmetry.
   204 basis functions,   324 primitive gaussians,   212 cartesian basis functions
    28 alpha electrons       28 beta electrons
       nuclear repulsion energy       323.0592529065 Hartrees.
 NAtoms=   12 NActive=   12 NUniq=   12 SFac= 1.00D+00 NAtFMM=   60 NAOKFM=F Big=F
 Integral buffers will be    131072 words long.
 Raffenetti 2 integral format.
 Two-electron integral symmetry is turned on.
 R6APFD:  NTU= -4 IXU= 1 FactS= 1.050
 Nuclear repulsion after empirical dispersion term =      323.0541690979 Hartrees.
 One-electron integrals computed using PRISM.
 NBasis=   204 RedAO= T EigKep=  2.48D-06  NBF=   204
 NBsUse=   204 1.00D-06 EigRej= -1.00D+00 NBFU=   204
 Initial guess from the checkpoint file:  "QINE0153.chk"
 B after Tr=    -0.000000   -0.000000    0.000000
         Rot=    1.000000   -0.000001    0.000040   -0.000000 Ang=  -0.00 deg.
 Keep R1 ints in memory in canonical form, NReq=235320201.
 Requested convergence on RMS density matrix=1.00D-08 within  32 cycles.
 Requested convergence on MAX density matrix=1.00D-06.
 Requested convergence on             energy=1.00D-06.
 No special actions if energy rises.
 SCF Done:  E(RM08HX) =  -381.427508695     A.U. after   10 cycles
            NFock= 10  Conv=0.76D-08     -V/T= 2.0040
 QCSCF skips out because SCF is already converged.
 R6APFD:  NTU= -4 IXU= 1 FactS= 1.050
 Calling FoFJK, ICntrl=      2127 FMM=F ISym2X=0 I1Cent= 0 IOpClX= 0 NMat=1 NMatS=1 NMatT=0.
 ***** Axes restored to original set *****
 -------------------------------------------------------------------
 Center     Atomic                   Forces (Hartrees/Bohr)
 Number     Number              X              Y              Z
 -------------------------------------------------------------------
      1        8           0.000310514   -0.000000043    0.000534729
      2        8          -0.000306513    0.000000148    0.000315055
      3        6          -0.000465505   -0.000000198   -0.001508157
      4        6           0.000462442    0.000000408   -0.000857864
      5        6          -0.000038070   -0.000030629    0.000348704
      6        6           0.000038703   -0.000029933    0.000527108
      7        6          -0.000039893    0.000029982    0.000348806
      8        6           0.000038388    0.000030387    0.000527198
      9        1           0.000009928   -0.000016959   -0.000081802
     10        1           0.000010388    0.000016547   -0.000081904
     11        1          -0.000010530   -0.000016529   -0.000035934
     12        1          -0.000009852    0.000016820   -0.000035940
 -------------------------------------------------------------------
 Cartesian Forces:  Max     0.001508157 RMS     0.000366773

 GradGradGradGradGradGradGradGradGradGradGradGradGradGradGradGradGradGrad
 Berny optimization.
 Using GEDIIS/GDIIS optimizer.
 FormGI is forming the generalized inverse of G from B-inverse, IUseBI=4.
 Internal  Forces:  Max     0.000307803 RMS     0.000136336
 Search for a local minimum.
 Step number   4 out of a maximum of   64
 All quantities printed in internal units (Hartrees-Bohrs-Radians)
 Mixed Optimization -- En-DIIS/RFO-DIIS
 Swapping is turned off.
 Update second derivatives using D2CorX and points    1    2    3    4
 DE=  5.73D-06 DEPred=-6.89D-06 R=-8.31D-01
 Trust test=-8.31D-01 RLast= 2.93D-02 DXMaxT set to 1.50D-01
 ITU= -1  1  1  0
     Eigenvalues ---    0.01060   0.01062   0.01698   0.01753   0.02029
     Eigenvalues ---    0.02060   0.02306   0.02359   0.03807   0.08426
     Eigenvalues ---    0.16000   0.16000   0.16000   0.22000   0.22869
     Eigenvalues ---    0.24187   0.24998   0.24999   0.30210   0.33034
     Eigenvalues ---    0.33958   0.34845   0.35487   0.35492   0.35492
     Eigenvalues ---    0.35953   0.54636   0.58327   0.91291   0.92773
 En-DIIS/RFO-DIIS/Sim-DIIS IScMMF=       -3 using points:     4    3
 RFO step:  Lambda=-1.98142131D-05.
 DidBck=T Rises=T En-DIIS coefs:    0.42655    0.57345
 Iteration  1 RMS(Cart)=  0.00188896 RMS(Int)=  0.00000601
 Iteration  2 RMS(Cart)=  0.00000738 RMS(Int)=  0.00000100
 Iteration  3 RMS(Cart)=  0.00000000 RMS(Int)=  0.00000100
 Variable       Old X    -DE/DX   Delta X   Delta X   Delta X     New X
                                 (Linear)    (Quad)   (Total)
    R1        2.28218   0.00031  -0.00011   0.00028   0.00017   2.28235
    R2        2.28218   0.00031  -0.00011   0.00028   0.00017   2.28235
    R3        2.81721  -0.00008  -0.00069   0.00089   0.00020   2.81742
    R4        2.81721  -0.00008  -0.00069   0.00090   0.00020   2.81742
    R5        2.81721  -0.00008  -0.00069   0.00090   0.00021   2.81742
    R6        2.81721  -0.00008  -0.00069   0.00089   0.00021   2.81741
    R7        2.52273  -0.00005   0.00051  -0.00072  -0.00022   2.52251
    R8        2.05823  -0.00002  -0.00003   0.00005   0.00001   2.05825
    R9        2.05823  -0.00002  -0.00003   0.00005   0.00001   2.05825
   R10        2.52273  -0.00005   0.00050  -0.00072  -0.00022   2.52251
   R11        2.05823  -0.00002  -0.00003   0.00005   0.00001   2.05825
   R12        2.05823  -0.00002  -0.00003   0.00005   0.00001   2.05825
    A1        2.11596  -0.00002  -0.00009   0.00011   0.00002   2.11598
    A2        2.11596  -0.00002  -0.00008   0.00010   0.00002   2.11598
    A3        2.05120   0.00006   0.00021  -0.00018   0.00003   2.05123
    A4        2.11598  -0.00003  -0.00009   0.00010   0.00000   2.11598
    A5        2.11597  -0.00003  -0.00010   0.00010   0.00000   2.11598
    A6        2.05121   0.00005   0.00021  -0.00018   0.00002   2.05123
    A7        2.11598  -0.00003  -0.00010   0.00010  -0.00000   2.11598
    A8        2.02142   0.00001   0.00113  -0.00161  -0.00048   2.02095
    A9        2.14578   0.00001  -0.00103   0.00151   0.00048   2.14626
   A10        2.11599  -0.00003  -0.00010   0.00009  -0.00001   2.11598
   A11        2.02141   0.00001   0.00113  -0.00160  -0.00047   2.02094
   A12        2.14579   0.00001  -0.00103   0.00151   0.00048   2.14627
   A13        2.11599  -0.00003  -0.00010   0.00009  -0.00001   2.11598
   A14        2.02141   0.00001   0.00113  -0.00160  -0.00047   2.02094
   A15        2.14579   0.00001  -0.00103   0.00151   0.00048   2.14627
   A16        2.11598  -0.00003  -0.00010   0.00010  -0.00001   2.11597
   A17        2.02142   0.00001   0.00113  -0.00161  -0.00048   2.02095
   A18        2.14578   0.00001  -0.00103   0.00151   0.00048   2.14627
    D1        3.13553   0.00023   0.00502   0.00125   0.00627  -3.14138
    D2       -0.00706   0.00029   0.00571   0.00150   0.00721   0.00015
    D3        0.00653  -0.00028  -0.00480  -0.00183  -0.00664  -0.00011
    D4       -3.13606  -0.00022  -0.00411  -0.00158  -0.00569   3.14143
    D5       -3.13553  -0.00023  -0.00502  -0.00124  -0.00627   3.14138
    D6        0.00706  -0.00029  -0.00572  -0.00149  -0.00721  -0.00015
    D7       -0.00653   0.00028   0.00480   0.00184   0.00664   0.00011
    D8        3.13606   0.00022   0.00410   0.00159   0.00570  -3.14143
    D9       -3.13838  -0.00013  -0.00248  -0.00152  -0.00399   3.14081
   D10        0.00357  -0.00018  -0.00272  -0.00177  -0.00449  -0.00092
   D11       -0.00472   0.00019   0.00344   0.00188   0.00531   0.00059
   D12        3.13723   0.00015   0.00319   0.00163   0.00482  -3.14114
   D13        3.13838   0.00013   0.00247   0.00152   0.00399  -3.14081
   D14       -0.00357   0.00018   0.00273   0.00175   0.00448   0.00091
   D15        0.00472  -0.00019  -0.00344  -0.00187  -0.00531  -0.00059
   D16       -3.13723  -0.00015  -0.00318  -0.00164  -0.00482   3.14113
   D17       -0.00094   0.00005   0.00071  -0.00003   0.00069  -0.00025
   D18       -3.14146  -0.00002  -0.00003  -0.00029  -0.00033   3.14140
   D19        3.14027   0.00009   0.00097   0.00024   0.00122   3.14149
   D20       -0.00025   0.00003   0.00023  -0.00002   0.00020  -0.00005
   D21        0.00094  -0.00005  -0.00070   0.00001  -0.00069   0.00025
   D22        3.14146   0.00002   0.00005   0.00028   0.00032  -3.14140
   D23       -3.14027  -0.00009  -0.00098  -0.00023  -0.00121  -3.14148
   D24        0.00025  -0.00003  -0.00023   0.00003  -0.00020   0.00005
         Item               Value     Threshold  Converged?
 Maximum Force            0.000308     0.000450     YES
 RMS     Force            0.000136     0.000300     YES
 Maximum Displacement     0.009133     0.001800     NO 
 RMS     Displacement     0.001889     0.001200     NO 
 Predicted change in Energy=-9.910244D-06
 GradGradGradGradGradGradGradGradGradGradGradGradGradGradGradGradGradGrad

                          Input orientation:                          
 ---------------------------------------------------------------------
 Center     Atomic      Atomic             Coordinates (Angstroms)
 Number     Number       Type             X           Y           Z
 ---------------------------------------------------------------------
      1          8           0        2.648315   -0.000052   -0.000072
      2          8           0       -2.648365    0.000051    0.000196
      3          6           0        1.440548   -0.000029   -0.000288
      4          6           0       -1.440598    0.000029   -0.000611
      5          6           0       -0.667428    1.274794   -0.000212
      6          6           0        0.667427    1.274767   -0.000211
      7          6           0       -0.667478   -1.274766   -0.000224
      8          6           0        0.667378   -1.274795   -0.000222
      9          1           0       -1.260169    2.188558   -0.000062
     10          1           0       -1.260259   -2.188503   -0.000076
     11          1           0        1.260210    2.188504   -0.000102
     12          1           0        1.260120   -2.188558   -0.000117
 ---------------------------------------------------------------------
                    Distance matrix (angstroms):
                    1          2          3          4          5
     1  O    0.000000
     2  O    5.296680   0.000000
     3  C    1.207768   4.088913   0.000000
     4  C    4.088914   1.207767   2.881146   0.000000
     5  C    3.552378   2.355649   2.463480   1.490912   0.000000
     6  C    2.355649   3.552377   1.490912   2.463479   1.334856
     7  C    3.552376   2.355647   2.463478   1.490911   2.549560
     8  C    2.355649   3.552377   1.490913   2.463481   2.877866
     9  H    4.479538   2.591650   3.476173   2.195954   1.089177
    10  H    4.479539   2.591642   3.476173   2.195949   3.513670
    11  H    2.591643   4.479540   2.195950   3.476174   2.133226
    12  H    2.591648   4.479538   2.195954   3.476175   3.963615
                    6          7          8          9         10
     6  C    0.000000
     7  C    2.877862   0.000000
     8  C    2.549562   1.334855   0.000000
     9  H    2.133223   3.513672   3.963616   0.000000
    10  H    3.963611   1.089177   2.133225   4.377060   0.000000
    11  H    1.089177   3.963611   3.513672   2.520379   5.050837
    12  H    3.513674   2.133225   1.089177   5.050841   2.520379
                   11         12
    11  H    0.000000
    12  H    4.377062   0.000000
 Stoichiometry    C6H4O2
 Framework group  C1[X(C6H4O2)]
 Deg. of freedom    30
 Full point group                 C1      NOp   1
 Largest Abelian subgroup         C1      NOp   1
 Largest concise Abelian subgroup C1      NOp   1
                         Standard orientation:                         
 ---------------------------------------------------------------------
 Center     Atomic      Atomic             Coordinates (Angstroms)
 Number     Number       Type             X           Y           Z
 ---------------------------------------------------------------------
      1          8           0        2.648340   -0.000000   -0.000106
      2          8           0       -2.648340    0.000001   -0.000374
      3          6           0        1.440573    0.000000    0.000110
      4          6           0       -1.440573   -0.000000    0.000433
      5          6           0       -0.667428   -1.274781    0.000034
      6          6           0        0.667427   -1.274780    0.000033
      7          6           0       -0.667427    1.274779    0.000046
      8          6           0        0.667428    1.274782    0.000044
      9          1           0       -1.260187   -2.188533   -0.000116
     10          1           0       -1.260191    2.188528   -0.000102
     11          1           0        1.260191   -2.188529   -0.000076
     12          1           0        1.260188    2.188533   -0.000061
 ---------------------------------------------------------------------
 Rotational constants (GHZ):           5.1934042           1.6736769           1.2657606
 Standard basis: 6-311++G(d,p) (5D, 7F)
 There are   212 symmetry adapted cartesian basis functions of A   symmetry.
 There are   204 symmetry adapted basis functions of A   symmetry.
   204 basis functions,   324 primitive gaussians,   212 cartesian basis functions
    28 alpha electrons       28 beta electrons
       nuclear repulsion energy       323.0490960173 Hartrees.
 NAtoms=   12 NActive=   12 NUniq=   12 SFac= 1.00D+00 NAtFMM=   60 NAOKFM=F Big=F
 Integral buffers will be    131072 words long.
 Raffenetti 2 integral format.
 Two-electron integral symmetry is turned on.
 R6APFD:  NTU= -4 IXU= 1 FactS= 1.050
 Nuclear repulsion after empirical dispersion term =      323.0440121130 Hartrees.
 One-electron integrals computed using PRISM.
 NBasis=   204 RedAO= T EigKep=  2.48D-06  NBF=   204
 NBsUse=   204 1.00D-06 EigRej= -1.00D+00 NBFU=   204
 Initial guess from the checkpoint file:  "QINE0153.chk"
 B after Tr=     0.000000   -0.000000   -0.000000
         Rot=    1.000000   -0.000000   -0.000019   -0.000000 Ang=  -0.00 deg.
 Keep R1 ints in memory in canonical form, NReq=235320201.
 Requested convergence on RMS density matrix=1.00D-08 within  32 cycles.
 Requested convergence on MAX density matrix=1.00D-06.
 Requested convergence on             energy=1.00D-06.
 No special actions if energy rises.
 SCF Done:  E(RM08HX) =  -381.427517789     A.U. after   10 cycles
            NFock= 10  Conv=0.59D-08     -V/T= 2.0040
 QCSCF skips out because SCF is already converged.
 R6APFD:  NTU= -4 IXU= 1 FactS= 1.050
 Calling FoFJK, ICntrl=      2127 FMM=F ISym2X=0 I1Cent= 0 IOpClX= 0 NMat=1 NMatS=1 NMatT=0.
 ***** Axes restored to original set *****
 -------------------------------------------------------------------
 Center     Atomic                   Forces (Hartrees/Bohr)
 Number     Number              X              Y              Z
 -------------------------------------------------------------------
      1        8           0.000127870    0.000000131   -0.000010734
      2        8          -0.000129240    0.000000075   -0.000060932
      3        6          -0.000398830   -0.000000582    0.000022096
      4        6           0.000400324    0.000000507    0.000172328
      5        6          -0.000236871   -0.000090729   -0.000057325
      6        6           0.000237457   -0.000091194   -0.000014954
      7        6          -0.000237451    0.000090099   -0.000056871
      8        6           0.000237057    0.000091777   -0.000014794
      9        1           0.000050433    0.000007032    0.000000058
     10        1           0.000050765   -0.000007239   -0.000000168
     11        1          -0.000050925    0.000007199    0.000010713
     12        1          -0.000050591   -0.000007076    0.000010585
 -------------------------------------------------------------------
 Cartesian Forces:  Max     0.000400324 RMS     0.000135628

 GradGradGradGradGradGradGradGradGradGradGradGradGradGradGradGradGradGrad
 Berny optimization.
 Using GEDIIS/GDIIS optimizer.
 FormGI is forming the generalized inverse of G from B-inverse, IUseBI=4.
 Internal  Forces:  Max     0.000142237 RMS     0.000055780
 Search for a local minimum.
 Step number   5 out of a maximum of   64
 All quantities printed in internal units (Hartrees-Bohrs-Radians)
 Mixed Optimization -- En-DIIS/RFO-DIIS
 Swapping is turned off.
 Update second derivatives using D2CorX and points    1    2    3    4    5
 DE= -9.09D-06 DEPred=-9.91D-06 R= 9.18D-01
 TightC=F SS=  1.41D+00  RLast= 2.27D-02 DXNew= 2.5227D-01 6.8200D-02
 Trust test= 9.18D-01 RLast= 2.27D-02 DXMaxT set to 1.50D-01
 ITU=  1 -1  1  1  0
     Eigenvalues ---    0.01061   0.01080   0.01722   0.01753   0.02030
     Eigenvalues ---    0.02060   0.02307   0.02376   0.04178   0.11211
     Eigenvalues ---    0.16000   0.16000   0.16000   0.22000   0.22869
     Eigenvalues ---    0.24568   0.25000   0.25000   0.32719   0.33034
[...]
   D18        3.14140   0.00001   0.00000   0.00020   0.00020  -3.14159
   D19        3.14149   0.00000   0.00000   0.00010   0.00010   3.14159
   D20       -0.00005   0.00001   0.00000   0.00005   0.00005  -0.00000
   D21        0.00025  -0.00001   0.00000  -0.00025  -0.00025  -0.00000
   D22       -3.14140  -0.00001   0.00000  -0.00019  -0.00019   3.14159
   D23       -3.14148  -0.00000   0.00000  -0.00011  -0.00011  -3.14159
   D24        0.00005  -0.00001   0.00000  -0.00005  -0.00005   0.00000
         Item               Value     Threshold  Converged?
 Maximum Force            0.000142     0.000450     YES
 RMS     Force            0.000056     0.000300     YES
 Maximum Displacement     0.000874     0.001800     YES
 RMS     Displacement     0.000270     0.001200     YES
 Predicted change in Energy=-4.378903D-07
 Optimization completed.
    -- Stationary point found.
                           ----------------------------
                           !   Optimized Parameters   !
                           ! (Angstroms and Degrees)  !
 --------------------------                            --------------------------
 ! Name  Definition              Value          Derivative Info.                !
 --------------------------------------------------------------------------------
 ! R1    R(1,3)                  1.2078         -DE/DX =    0.0001              !
 ! R2    R(2,4)                  1.2078         -DE/DX =    0.0001              !
 ! R3    R(3,6)                  1.4909         -DE/DX =   -0.0001              !
 ! R4    R(3,8)                  1.4909         -DE/DX =   -0.0001              !
 ! R5    R(4,5)                  1.4909         -DE/DX =   -0.0001              !
 ! R6    R(4,7)                  1.4909         -DE/DX =   -0.0001              !
 ! R7    R(5,6)                  1.3349         -DE/DX =    0.0001              !
 ! R8    R(5,9)                  1.0892         -DE/DX =    0.0                 !
 ! R9    R(6,11)                 1.0892         -DE/DX =    0.0                 !
 ! R10   R(7,8)                  1.3349         -DE/DX =    0.0001              !
 ! R11   R(7,10)                 1.0892         -DE/DX =    0.0                 !
 ! R12   R(8,12)                 1.0892         -DE/DX =    0.0                 !
 ! A1    A(1,3,6)              121.2365         -DE/DX =    0.0                 !
 ! A2    A(1,3,8)              121.2365         -DE/DX =    0.0                 !
 ! A3    A(6,3,8)              117.527          -DE/DX =    0.0001              !
 ! A4    A(2,4,5)              121.2366         -DE/DX =    0.0                 !
 ! A5    A(2,4,7)              121.2365         -DE/DX =    0.0                 !
 ! A6    A(5,4,7)              117.5269         -DE/DX =    0.0001              !
 ! A7    A(4,5,6)              121.2365         -DE/DX =    0.0                 !
 ! A8    A(4,5,9)              115.7917         -DE/DX =    0.0001              !
 ! A9    A(6,5,9)              122.9719         -DE/DX =    0.0                 !
 ! A10   A(3,6,5)              121.2366         -DE/DX =    0.0                 !
 ! A11   A(3,6,11)             115.7913         -DE/DX =    0.0001              !
 ! A12   A(5,6,11)             122.9721         -DE/DX =    0.0                 !
 ! A13   A(4,7,8)              121.2367         -DE/DX =    0.0                 !
 ! A14   A(4,7,10)             115.7913         -DE/DX =    0.0001              !
 ! A15   A(8,7,10)             122.972          -DE/DX =    0.0                 !
 ! A16   A(3,8,7)              121.2363         -DE/DX =    0.0                 !
 ! A17   A(3,8,12)             115.7916         -DE/DX =    0.0001              !
 ! A18   A(7,8,12)             122.972          -DE/DX =    0.0                 !
 ! D1    D(1,3,6,5)           -179.988          -DE/DX =    0.0                 !
 ! D2    D(1,3,6,11)             0.0089         -DE/DX =    0.0                 !
 ! D3    D(8,3,6,5)             -0.0062         -DE/DX =    0.0                 !
 ! D4    D(8,3,6,11)           179.9907         -DE/DX =    0.0                 !
 ! D5    D(1,3,8,7)            179.9881         -DE/DX =    0.0                 !
 ! D6    D(1,3,8,12)            -0.0086         -DE/DX =    0.0                 !
 ! D7    D(6,3,8,7)              0.0063         -DE/DX =    0.0                 !
 ! D8    D(6,3,8,12)          -179.9904         -DE/DX =    0.0                 !
 ! D9    D(2,4,5,6)            179.9552         -DE/DX =    0.0                 !
 ! D10   D(2,4,5,9)             -0.0527         -DE/DX =    0.0                 !
 ! D11   D(7,4,5,6)              0.034          -DE/DX =    0.0                 !
 ! D12   D(7,4,5,9)            180.0261         -DE/DX =    0.0                 !
 ! D13   D(2,4,7,8)           -179.9551         -DE/DX =    0.0                 !
 ! D14   D(2,4,7,10)             0.0523         -DE/DX =    0.0                 !
 ! D15   D(5,4,7,8)             -0.034          -DE/DX =    0.0                 !
 ! D16   D(5,4,7,10)          -180.0265         -DE/DX =    0.0                 !
 ! D17   D(4,5,6,3)             -0.0144         -DE/DX =    0.0                 !
 ! D18   D(4,5,6,11)          -180.0111         -DE/DX =    0.0                 !
 ! D19   D(9,5,6,3)            179.9941         -DE/DX =    0.0                 !
 ! D20   D(9,5,6,11)            -0.0026         -DE/DX =    0.0                 !
 ! D21   D(4,7,8,3)              0.0143         -DE/DX =    0.0                 !
 ! D22   D(4,7,8,12)           180.0108         -DE/DX =    0.0                 !
 ! D23   D(10,7,8,3)          -179.9937         -DE/DX =    0.0                 !
 ! D24   D(10,7,8,12)            0.0028         -DE/DX =    0.0                 !
 --------------------------------------------------------------------------------
 GradGradGradGradGradGradGradGradGradGradGradGradGradGradGradGradGradGrad


 ----------------------------------------------------------------------

 Electric dipole moment (input orientation):
 (Debye = 10**-18 statcoulomb cm , SI units = C m)
                  (au)            (Debye)         (10**-30 SI)
   Tot        0.497399D-03      0.126426D-02      0.421712D-02
   x          0.000000D+00      0.000000D+00      0.000000D+00
   y          0.000000D+00      0.000000D+00      0.000000D+00
   z         -0.497399D-03     -0.126426D-02     -0.421712D-02

 Dipole polarizability, Alpha (input orientation).
 (esu units = cm**3 , SI units = C**2 m**2 J**-1)
 Alpha(0;0):
               (au)            (10**-24 esu)      (10**-40 SI)
   iso        0.726241D+02      0.107618D+02      0.119741D+02
   aniso      0.651129D+02      0.964874D+01      0.107357D+02
   xx         0.113516D+03      0.168213D+02      0.187163D+02
   yx        -0.966978D-03     -0.143291D-03     -0.159433D-03
   yy         0.647926D+02      0.960127D+01      0.106829D+02
   zx        -0.277659D-02     -0.411448D-03     -0.457798D-03
   zy         0.964779D-04      0.142965D-04      0.159070D-04
   zz         0.395638D+02      0.586275D+01      0.652318D+01

 ----------------------------------------------------------------------

 Dipole orientation:
     8          5.00457189          0.00008235         -0.01359623
     8         -5.00466668         -0.00008046          0.01336156
     6          2.72223164          0.00004649         -0.00692532
     6         -2.72232316         -0.00004229          0.00862373
     6         -1.26124242         -2.40899897          0.00981961
     6          1.26125944         -2.40895621          0.00289688
     6         -1.26135198          2.40895582         -0.00207473
     6          1.26114952          2.40900259         -0.00899970
     1         -2.38135119         -4.13575349          0.01688088
     1         -2.38154953          4.13566683         -0.00355115
     1          2.38145686         -4.13566786          0.00388896
     1          2.38125907          4.13575454         -0.01654351

 Electric dipole moment (dipole orientation):
 (Debye = 10**-18 statcoulomb cm , SI units = C m)
                  (au)            (Debye)         (10**-30 SI)
   Tot        0.497402D-03      0.126427D-02      0.421715D-02
   x          0.000000D+00      0.000000D+00      0.000000D+00
   y          0.000000D+00      0.000000D+00      0.000000D+00
   z          0.497402D-03      0.126427D-02      0.421715D-02

 Dipole polarizability, Alpha (dipole orientation).
 (esu units = cm**3 , SI units = C**2 m**2 J**-1)
 Alpha(0;0):
               (au)            (10**-24 esu)      (10**-40 SI)
   iso        0.726241D+02      0.107618D+02      0.119741D+02
   aniso      0.651129D+02      0.964874D+01      0.107357D+02
   xx         0.113515D+03      0.168213D+02      0.187162D+02
   yx         0.637531D-03      0.944724D-04      0.105115D-03
   yy         0.647924D+02      0.960124D+01      0.106828D+02
   zx        -0.200139D+00     -0.296576D-01     -0.329985D-01
   zy        -0.623097D-01     -0.923335D-02     -0.102735D-01
   zz         0.395645D+02      0.586285D+01      0.652330D+01

 ----------------------------------------------------------------------
 1\1\GINC-PITOMBA\Freq\RM08HX\6-311++G(d,p)\C6H4O2\VALTER\21-Sep-2025\0
 \\#N Geom=AllCheck Guess=TCheck SCRF=Check GenChk RM08HX/6-311++G(d,p)
  Freq\\QINE0153\\0,1\O,2.6483151652,-0.0000523872,-0.0000719253\O,-2.6
 483649849,0.0000510777,0.0001962375\C,1.4405475778,-0.0000287802,-0.00
 02880116\C,-1.4405984766,0.0000287774,-0.0006106114\C,-0.6674281671,1.
 2747940466,-0.0002117329\C,0.6674273582,1.2747668865,-0.0002111089\C,-
 0.6674775213,-1.2747656038,-0.000223819\C,0.6673778147,-1.2747948881,-
 0.000222008\H,-1.2601691225,2.1885576223,-0.0000617703\H,-1.2602592648
 ,-2.1885028692,-0.0000761789\H,1.2602097369,2.1885038553,-0.0001024443
 \H,1.2601198842,-2.1885577373,-0.0001166268\\Version=ES64L-G16RevB.01\
 State=1-A\HF=-381.4275178\RMSD=2.630e-09\RMSF=1.356e-04\ZeroPoint=0.08
 50399\Thermal=0.0914243\Dipole=-0.0000014,0.0000012,-0.0004974\DipoleD
 eriv=-1.2772683,0.0000146,0.0000188,0.0000147,-0.5236402,-0.0000008,-0
 .0000741,-0.0000009,-0.3533989,-1.2772696,0.0000145,-0.000102,0.000014
 ,-0.5236401,-0.0000007,0.000223,-0.0000009,-0.3533988,1.3848643,-0.000
 0098,-0.000026,-0.0000098,0.8502952,0.0000031,-0.0000354,0.0000028,0.2
 938434,1.3848672,-0.0000095,0.0001037,-0.0000092,0.8502971,0.0000029,0
 .000243,0.0000027,0.2938449,-0.1010462,-0.1851355,-0.0000777,-0.269726
 8,-0.156507,0.000049,-0.0001096,-0.0000266,-0.1095127,-0.1010268,0.185
 1328,0.0000804,0.2697228,-0.1565245,0.0000443,-0.0000692,-0.0000767,-0
 .1095119,-0.1010276,0.1851339,-0.0000765,0.2697241,-0.156525,-0.000049
 8,-0.0001099,0.0000251,-0.1095127,-0.1010452,-0.1851345,0.0000793,-0.2
 697255,-0.1565065,-0.0000455,-0.0000696,0.000075,-0.1095119,0.0472391,
 0.0370001,0.0000051,0.0188005,-0.0068137,-0.0000123,-0.0000127,-0.0000
 424,0.1392897,0.0472365,-0.0370035,0.0000049,-0.0188026,-0.0068115,0.0
 00011,-0.000012,0.0000422,0.1392894,0.047237,-0.037003,-0.0000051,-0.0
 188021,-0.0068108,-0.0000247,0.0000134,0.0000057,0.1392896,0.0472396,0
 .0369998,-0.0000049,0.0188,-0.0068129,0.0000235,0.0000131,-0.0000061,0
 .1392898\Polar=113.5159676,-0.000967,64.792562,-0.0027766,0.0000965,39
 .563765\Quadrupole=-10.5998711,8.5383821,2.0614889,0.0003697,0.0014366
 ,0.0000132\PG=C01 [X(C6H4O2)]\NImag=0\\0.87333733,-0.00001515,0.091868
 26,0.00013625,0.00000030,0.02344038,-0.00093144,0.00000010,-0.00000030
 ,0.87334172,0.00000010,0.00402369,0.00000002,-0.00001462,0.09186793,-0
 .00000168,0.00000002,-0.00012030,-0.00047859,0.00000035,0.02344017,-0.
 75516009,0.00001260,-0.00011794,0.00076235,-0.00000025,0.00000256,0.97
 553961,0.00001263,-0.10407346,-0.00000018,-0.00000023,-0.01134911,-0.0
 0000007,-0.00000884,0.53290534,-0.00012010,-0.00000017,-0.06075032,0.0
 0000853,-0.00000004,0.00204004,0.00011226,0.00000129,0.18101251,0.0007
 6235,-0.00000024,0.00000114,-0.75516418,0.00001197,0.00042435,-0.00073
 546,0.00000065,-0.00001123,0.97554388,-0.00000025,-0.01134912,-0.00000
 007,0.00001208,-0.10407312,-0.00000023,0.00000065,0.03106982,0.0000001
 6,-0.00000855,0.53290607,0.00000372,-0.00000004,0.00204005,0.00040708,
 -0.00000022,-0.06075016,-0.00000933,0.00000015,-0.01076425,-0.00034858
 ,0.00000145,0.18101230,0.00576712,0.00400002,-0.00000118,-0.06343488,-
 0.04817398,0.00003012,-0.02596315,0.00552113,0.00000781,-0.09272567,-0
 .02707198,-0.00003543,0.85955792,0.00942681,-0.00602913,0.00000200,-0.
 02356298,0.01121012,0.00000304,0.02478404,0.00912418,0.00000635,-0.030
 59618,-0.21383673,-0.00003340,-0.07414047,0.60803692,0.00000042,-0.000
 00067,0.00152098,0.00004888,0.00002489,0.02039810,0.00001137,0.0000019
 4,-0.00687202,-0.00004819,-0.00005969,-0.06586290,-0.00001477,0.000094
 64,0.10015433,-0.06343213,0.04817683,-0.00000752,0.00576659,-0.0040005
 1,-0.00000529,-0.09272333,0.02706718,-0.00000489,-0.02596446,-0.005519
 71,0.00001043,-0.54869980,0.00405933,-0.00000867,0.85956526,0.02356576
 ,0.01120724,-0.00000188,-0.00942725,-0.00602867,0.00000809,0.03059175,
 -0.21383899,-0.00000302,-0.02478274,0.00912547,-0.00000343,-0.00404210
 ,-0.12503546,-0.00003117,0.07413028,0.60802920,-0.00001205,0.00000731,
 0.02039807,-0.00000937,-0.00000410,0.00152098,0.00000240,-0.00001941,-
 0.06586285,0.00000262,0.00000963,-0.00687204,-0.00000628,-0.00002643,-
 0.03370463,0.00002943,0.00006050,0.10015436,0.00576656,-0.00400053,-0.
 00000121,-0.06343251,0.04817697,0.00003059,-0.02596456,-0.00551976,0.0
 0000775,-0.09272353,0.02706773,-0.00003514,0.01756047,-0.01058899,0.00
 000669,-0.00246603,0.00310869,-0.00000050,0.85956632,-0.00942729,-0.00
 602866,-0.00000206,0.02356590,0.01120722,-0.00000308,-0.02478282,0.009
 12543,-0.00000627,0.03059233,-0.21383971,0.00003208,0.01058719,-0.0266
 6312,0.00000289,0.00310870,-0.00280794,0.00000690,0.07412897,0.6080303
 5,0.00000037,0.00000060,0.00152097,0.00004915,-0.00002497,0.02039814,0
 .00001120,-0.00000177,-0.00687198,-0.00004806,0.00005850,-0.06586284,0
 .00000684,-0.00000319,0.00477067,-0.00000201,0.00000107,0.01080243,-0.
 00001458,-0.00009176,0.10015427,-0.06343489,-0.04817390,-0.00000795,0.
 00576714,0.00400003,-0.00000524,-0.09272547,-0.02707169,-0.00000511,-0
 .02596309,0.00552108,0.00001044,-0.00246631,-0.00310870,-0.00000204,0.
 01756046,0.01058716,0.00000282,-0.54870037,-0.00404138,-0.00000900,0.8
 5955864,-0.02356283,0.01121014,0.00000183,0.00942681,-0.00602912,-0.00
 000818,-0.03059595,-0.21383634,0.00000187,0.02478394,0.00912422,0.0000
 0361,-0.00310869,-0.00280763,-0.00000120,-0.01058897,-0.02666293,0.000
 00013,0.00406003,-0.12503545,0.00003058,-0.07414163,0.60803602,-0.0000
 1231,-0.00000739,0.02039812,-0.00000930,0.00000404,0.00152098,0.000002
 27,0.00001834,-0.06586294,0.00000279,-0.00000944,-0.00687207,-0.000000
 52,-0.00000701,0.01080240,0.00000269,-0.00000040,0.00477057,-0.0000067
 1,0.00002582,-0.03370457,0.00002982,-0.00005759,0.10015424,-0.00248571
 ,0.00204493,-0.00000056,0.00114837,0.00256415,-0.00000039,-0.00230463,
 -0.00444244,-0.00000020,0.01078968,-0.01560151,-0.00000185,-0.13650943
 ,0.12891424,0.00001788,-0.01079893,0.02812819,0.00000403,-0.00208196,-
 0.00275815,-0.00000083,-0.00020479,0.00018205,0.00000050,0.14127644,-0
 .00003094,0.00060327,0.00000070,-0.00119901,0.00398217,0.00000190,-0.0
 0175369,-0.00037882,-0.00000374,0.01918274,-0.01918437,-0.00000457,0.1
 2854771,-0.25895292,-0.00003557,-0.00350528,0.00688141,-0.00000204,-0.
 00437610,-0.00286272,-0.00000150,-0.00000096,0.00093431,0.00000033,-0.
 13810101,0.26922814,0.00000137,0.00000024,-0.00270297,-0.00000379,0.00
 000070,-0.00152100,-0.00000270,-0.00000154,0.01463170,0.00001017,-0.00
 000751,0.00233421,0.00001768,-0.00003527,-0.03758790,-0.00000158,0.000
 00040,0.00720507,-0.00000267,0.00000020,0.00214315,0.00000032,0.000000
 77,-0.00296715,-0.00001924,0.00004148,0.02491589,-0.00248579,-0.002044
 81,-0.00000058,0.00114834,-0.00256398,-0.00000041,-0.00230439,0.004442
 52,-0.00000014,0.01078944,0.01560037,-0.00000178,-0.00208167,0.0027581
 0,-0.00000079,-0.00020479,-0.00018200,0.00000049,-0.13652075,-0.128919
 54,0.00001754,-0.01079989,-0.02812736,0.00000389,0.00057273,0.00075558
 ,0.00000041,0.14128855,0.00003108,0.00060335,-0.00000068,0.00119907,0.
 00398226,-0.00000187,0.00175377,-0.00037907,0.00000369,-0.01918399,-0.
 01918459,0.00000446,0.00437608,-0.00286304,0.00000148,0.00000102,0.000
 93432,-0.00000032,-0.12855273,-0.25894116,0.00003491,0.00350603,0.0068
 8248,0.00000203,-0.00075566,-0.00107905,-0.00000038,0.13810630,0.26921
 590,0.00000136,-0.00000022,-0.00270299,-0.00000380,-0.00000067,-0.0015
 2100,-0.00000274,0.00000143,0.01463171,0.00001007,0.00000732,0.0023343
 0,-0.00000263,-0.00000024,0.00214314,0.00000032,-0.00000073,-0.0029671
 6,0.00001744,0.00003474,-0.03758806,-0.00000160,-0.00000042,0.00720507
 ,0.00000040,0.00000036,0.00061609,-0.00001888,-0.00004069,0.02491597,0
 .00114832,-0.00256399,-0.00000009,-0.00248578,-0.00204481,0.00000198,0
 .01078946,0.01560034,0.00000270,-0.00230437,0.00444253,0.00000026,-0.0
 1079982,-0.02812726,-0.00001083,-0.13652086,-0.12891960,-0.00001375,-0
 .00020479,-0.00018200,0.00000005,-0.00208167,0.00275810,0.00000018,0.0
 0052637,0.00032788,-0.00000014,0.00007185,-0.00015308,0.00000018,0.141
 28856,0.00119908,0.00398225,0.00000096,0.00003108,0.00060335,-0.000000
 04,-0.01918398,-0.01918456,-0.00000451,0.00175376,-0.00037909,-0.00000
 072,0.00350606,0.00688250,0.00000232,-0.12855278,-0.25894095,-0.000032
 25,0.00000102,0.00093433,-0.00000013,0.00437608,-0.00286302,-0.0000001
 3,-0.00032789,0.00076573,0.00000091,-0.00015308,0.00006286,0.,0.138106
 31,0.26921566,0.00000131,0.00000093,-0.00152099,-0.00000425,-0.0000015
 1,-0.00270298,-0.00000472,-0.00000248,0.00233424,0.00000245,-0.0000004
 1,0.01463170,-0.00000103,-0.00000208,0.00720500,-0.00001346,-0.0000288
 9,-0.03758795,-0.00000057,-0.00000157,-0.00296717,0.00000058,0.0000005
 0,0.00214316,0.00000041,0.00000253,-0.00708656,-0.00000016,-0.00000012
 ,0.00001949,0.00001968,0.00003335,0.02491598,0.00114836,0.00256414,-0.
 00000007,-0.00248571,0.00204492,0.00000201,0.01078967,-0.01560150,0.00
 000262,-0.00230460,-0.00444244,0.00000017,-0.00020479,0.00018205,0.000
 00006,-0.00208197,-0.00275814,0.00000015,-0.01079884,0.02812810,-0.000
 01067,-0.13650974,0.12891450,-0.00001330,0.00007187,0.00015308,0.00000
 018,0.00052637,-0.00032788,-0.00000013,0.00057273,-0.00075565,-0.00000
 023,0.14127665,-0.00119899,0.00398217,-0.00000093,-0.00003095,0.000603
 27,0.00000006,0.01918272,-0.01918440,0.00000440,-0.00175369,-0.0003788
 4,0.00000066,-0.00000096,0.00093431,0.00000015,-0.00437610,-0.00286270
 ,0.00000010,-0.00350531,0.00688144,-0.00000234,0.12854789,-0.25895268,
 0.00003140,0.00015308,0.00006285,0.,0.00032789,0.00076573,-0.00000087,
 0.00075558,-0.00107904,-0.00000024,-0.13810117,0.26922790,0.00000132,-
 0.00000090,-0.00152099,-0.00000425,0.00000153,-0.00270297,-0.00000462,
 0.00000230,0.00233416,0.00000248,0.00000029,0.01463170,-0.00000059,0.0
 0000161,-0.00296716,0.00000055,-0.00000054,0.00214317,-0.00000107,0.00
 000212,0.00720500,-0.00001302,0.00002810,-0.03758780,-0.00000016,0.000
 00013,0.00001949,0.00000039,-0.00000250,-0.00708656,-0.00000022,0.0000
 0023,0.00061608,0.00001921,-0.00003237,0.02491588\\-0.00012786,-0.0000
 0013,0.00001074,0.00012924,-0.00000008,0.00006093,0.00039878,0.0000005
 8,-0.00002210,-0.00040032,-0.00000051,-0.00017233,0.00023689,0.0000907
 3,0.00005733,-0.00023746,0.00009120,0.00001495,0.00023747,-0.00009010,
 0.00005687,-0.00023706,-0.00009178,0.00001479,-0.00005043,-0.00000703,
 -0.00000006,-0.00005076,0.00000724,0.00000017,0.00005092,-0.00000720,-
 0.00001071,0.00005059,0.00000708,-0.00001059\\\@


 THE LENGTH OF A MEETING IS PROPORTIONAL TO THE
 SQUARE OF THE PARTICIPANTS.
 Job cpu time:       0 days  0 hours 47 minutes 24.8 seconds.
 Elapsed time:       0 days  0 hours  3 minutes  0.2 seconds.
 File lengths (MBytes):  RWF=     54 Int=      0 D2E=      0 Chk=      5 Scr=      1
 Normal termination of Gaussian 16 at Sun Sep 21 13:41:28 2025.
