 Entering Gaussian System, Link 0=g16
 Input=REQE0154.gjf
 Output=REQE0154.log
 Initial command:
 /usr/local/g16/l1.exe "/dados_01/scratch/Gau-2209855.inp" -scrdir="/dados_01/scratch/"
 Entering Link 1 = /usr/local/g16/l1.exe PID=   2209856.
  
 Copyright (c) 1988-2017, Gaussian, Inc.  All Rights Reserved.
  
 This is part of the Gaussian(R) 16 program.  It is based on
 the Gaussian(R) 09 system (copyright 2009, Gaussian, Inc.),
 the Gaussian(R) 03 system (copyright 2003, Gaussian, Inc.),
 the Gaussian(R) 98 system (copyright 1998, Gaussian, Inc.),
 the Gaussian(R) 94 system (copyright 1995, Gaussian, Inc.),
 the Gaussian 92(TM) system (copyright 1992, Gaussian, Inc.),
 the Gaussian 90(TM) system (copyright 1990, Gaussian, Inc.),
 the Gaussian 88(TM) system (copyright 1988, Gaussian, Inc.),
 the Gaussian 86(TM) system (copyright 1986, Carnegie Mellon
 University), and the Gaussian 82(TM) system (copyright 1983,
 Carnegie Mellon University). Gaussian is a federally registered
 trademark of Gaussian, Inc.
  
 This software contains proprietary and confidential information,
 including trade secrets, belonging to Gaussian, Inc.
  
 This software is provided under written license and may be
 used, copied, transmitted, or stored only in accord with that
 written license.
  
 The following legend is applicable only to US Government
 contracts under FAR:
  
                    RESTRICTED RIGHTS LEGEND
  
 Use, reproduction and disclosure by the US Government is
 subject to restrictions as set forth in subparagraphs (a)
 and (c) of the Commercial Computer Software - Restricted
 Rights clause in FAR 52.227-19.
  
 Gaussian, Inc.
 340 Quinnipiac St., Bldg. 40, Wallingford CT 06492
  
  
 ---------------------------------------------------------------
 Warning -- This program may not be used in any manner that
 competes with the business of Gaussian, Inc. or will provide
 assistance to any competitor of Gaussian, Inc.  The licensee
 of this program is prohibited from giving any competitor of
 Gaussian, Inc. access to this program.  By using this program,
 the user acknowledges that Gaussian, Inc. is engaged in the
 business of creating and licensing software in the field of
 computational chemistry and represents and warrants to the
 licensee that it is not a competitor of Gaussian, Inc. and that
 it will not use this program in any manner prohibited above.
 ---------------------------------------------------------------
  

 Cite this work as:
 Gaussian 16, Revision B.01,
 M. J. Frisch, G. W. Trucks, H. B. Schlegel, G. E. Scuseria, 
 M. A. Robb, J. R. Cheeseman, G. Scalmani, V. Barone, 
 G. A. Petersson, H. Nakatsuji, X. Li, M. Caricato, A. V. Marenich, 
 J. Bloino, B. G. Janesko, R. Gomperts, B. Mennucci, H. P. Hratchian, 
 J. V. Ortiz, A. F. Izmaylov, J. L. Sonnenberg, D. Williams-Young, 
 F. Ding, F. Lipparini, F. Egidi, J. Goings, B. Peng, A. Petrone, 
 T. Henderson, D. Ranasinghe, V. G. Zakrzewski, J. Gao, N. Rega, 
 G. Zheng, W. Liang, M. Hada, M. Ehara, K. Toyota, R. Fukuda, 
 J. Hasegawa, M. Ishida, T. Nakajima, Y. Honda, O. Kitao, H. Nakai, 
 T. Vreven, K. Throssell, J. A. Montgomery, Jr., J. E. Peralta, 
 F. Ogliaro, M. J. Bearpark, J. J. Heyd, E. N. Brothers, K. N. Kudin, 
 V. N. Staroverov, T. A. Keith, R. Kobayashi, J. Normand, 
 K. Raghavachari, A. P. Rendell, J. C. Burant, S. S. Iyengar, 
 J. Tomasi, M. Cossi, J. M. Millam, M. Klene, C. Adamo, R. Cammi, 
 J. W. Ochterski, R. L. Martin, K. Morokuma, O. Farkas, 
 J. B. Foresman, and D. J. Fox, Gaussian, Inc., Wallingford CT, 2016.
 
 ******************************************
 Gaussian 16:  ES64L-G16RevB.01 20-Dec-2017
                21-Sep-2025 
 ******************************************
 %nprocs=16
 Will use up to   16 processors via shared memory.
 %mem=40GB
 %chk=REQE0154.chk
 ----------------------------------------------------------------------
 # opt freq=noraman M08HX/6-311++G** scf=xqc Empiricaldispersion=pfd In
 t(Grid=ultraFine)
 ----------------------------------------------------------------------
 1/18=20,19=15,26=4,38=1/1,3;
 2/9=110,12=2,17=6,18=5,40=1/2;
 3/5=4,6=6,7=1111,11=2,25=1,30=1,71=1,74=-74,75=-5,124=11/1,2,3;
 4//1;
 5/5=2,8=3,13=1,38=5/2,8;
 6/7=2,8=2,9=2,10=2,28=1/1;
 7//1,2,3,16;
 1/18=20,19=15,26=4/3(2);
 2/9=110/2;
 99//99;
 2/9=110/2;
 3/5=4,6=6,7=1111,11=2,25=1,30=1,71=1,74=-74,75=-5,124=11/1,2,3;
 4/5=5,16=3,69=1/1;
 5/5=2,8=3,13=1,38=5/2,8;
 7//1,2,3,16;
 1/18=20,19=15,26=4/3(-5);
 2/9=110/2;
 6/7=2,8=2,9=2,10=2,19=2,28=1/1;
 99/9=1/99;
 --------
 REQE0154
 --------
 Symbolic Z-matrix:
 Charge =  0 Multiplicity = 1
 O                    -0.4434    2.7985   -0.0021 
 O                     2.1535    2.5924    0.002 
 C                    -0.1754   -0.8116   -0.0005 
 C                    -4.4891   -0.3703    0.0012 
 C                    -3.0061   -0.5203   -0.0004 
 C                    -0.7924    0.4545   -0.001 
 C                     1.3051   -0.9393   -0.0002 
 C                     2.1298    0.2024   -0.0001 
 C                    -2.1882    0.6028   -0.0009 
 C                    -1.0391   -1.9258   -0.0005 
 C                    -2.432    -1.7841   -0.0002 
 C                     0.0337    1.6738   -0.0011 
 C                     1.5247    1.5451   -0.0003 
 C                     3.5303    0.1097    0.0002 
 C                    -5.0162    0.342    -1.2605 
 C                    -5.0135    0.3439    1.263 
 C                     1.9652   -2.1848    0.0002 
 C                     4.1438   -1.137     0.0003 
 C                     3.3618   -2.2837    0.0003 
 C                     4.4474    1.2919    0.0006 
 H                    -4.9443   -1.3703    0.0025 
 H                    -2.6312    1.5954   -0.0009 
 H                    -0.6571   -2.9428   -0.0002 
 H                    -3.0496   -2.6787    0.0003 
 H                    -4.677     1.382    -1.3141 
 H                    -6.1115    0.347    -1.2693 
 H                    -4.6743   -0.1698   -2.167 
 H                    -4.6695   -0.1663    2.1695 
 H                    -6.1088    0.3486    1.2742 
 H                    -4.6746    1.3842    1.3142 
 H                     1.4151   -3.1214    0.0002 
 H                     5.2255   -1.2394    0.0004 
 H                     3.8331   -3.2625    0.0004 
 H                     5.5018    0.9903    0.0001 
 H                     4.3059    1.8977   -0.9002 
 H                     4.3064    1.8968    0.9021 
 

 GradGradGradGradGradGradGradGradGradGradGradGradGradGradGradGradGradGrad
 Berny optimization.
 Initialization pass.
                           ----------------------------
                           !    Initial Parameters    !
                           ! (Angstroms and Degrees)  !
 --------------------------                            --------------------------
 ! Name  Definition              Value          Derivative Info.                !
 --------------------------------------------------------------------------------
 ! R1    R(1,12)                 1.2217         estimate D2E/DX2                !
 ! R2    R(2,13)                 1.2216         estimate D2E/DX2                !
 ! R3    R(3,6)                  1.4084         estimate D2E/DX2                !
 ! R4    R(3,7)                  1.486          estimate D2E/DX2                !
 ! R5    R(3,10)                 1.4098         estimate D2E/DX2                !
 ! R6    R(4,5)                  1.4906         estimate D2E/DX2                !
 ! R7    R(4,15)                 1.5418         estimate D2E/DX2                !
 ! R8    R(4,16)                 1.5418         estimate D2E/DX2                !
 ! R9    R(4,21)                 1.0987         estimate D2E/DX2                !
 ! R10   R(5,9)                  1.3894         estimate D2E/DX2                !
 ! R11   R(5,11)                 1.3881         estimate D2E/DX2                !
 ! R12   R(6,9)                  1.4037         estimate D2E/DX2                !
 ! R13   R(6,12)                 1.4728         estimate D2E/DX2                !
 ! R14   R(7,8)                  1.4084         estimate D2E/DX2                !
 ! R15   R(7,17)                 1.4096         estimate D2E/DX2                !
 ! R16   R(8,13)                 1.4727         estimate D2E/DX2                !
 ! R17   R(8,14)                 1.4036         estimate D2E/DX2                !
 ! R18   R(9,22)                 1.087          estimate D2E/DX2                !
 ! R19   R(10,11)                1.4001         estimate D2E/DX2                !
 ! R20   R(10,23)                1.0864         estimate D2E/DX2                !
 ! R21   R(11,24)                1.0871         estimate D2E/DX2                !
 ! R22   R(12,13)                1.4965         estimate D2E/DX2                !
 ! R23   R(14,18)                1.3895         estimate D2E/DX2                !
 ! R24   R(14,20)                1.4962         estimate D2E/DX2                !
 ! R25   R(15,25)                1.0952         estimate D2E/DX2                !
 ! R26   R(15,26)                1.0953         estimate D2E/DX2                !
 ! R27   R(15,27)                1.0957         estimate D2E/DX2                !
 ! R28   R(16,28)                1.0956         estimate D2E/DX2                !
 ! R29   R(16,29)                1.0954         estimate D2E/DX2                !
 ! R30   R(16,30)                1.0953         estimate D2E/DX2                !
 ! R31   R(17,19)                1.4001         estimate D2E/DX2                !
 ! R32   R(17,31)                1.0862         estimate D2E/DX2                !
 ! R33   R(18,19)                1.388          estimate D2E/DX2                !
 ! R34   R(18,32)                1.0865         estimate D2E/DX2                !
 ! R35   R(19,33)                1.0864         estimate D2E/DX2                !
 ! R36   R(20,34)                1.0967         estimate D2E/DX2                !
 ! R37   R(20,35)                1.0947         estimate D2E/DX2                !
 ! R38   R(20,36)                1.0948         estimate D2E/DX2                !
 ! A1    A(6,3,7)              120.9109         estimate D2E/DX2                !
 ! A2    A(6,3,10)             116.237          estimate D2E/DX2                !
 ! A3    A(7,3,10)             122.8521         estimate D2E/DX2                !
 ! A4    A(5,4,15)             112.6906         estimate D2E/DX2                !
 ! A5    A(5,4,16)             112.6986         estimate D2E/DX2                !
 ! A6    A(5,4,21)             108.6995         estimate D2E/DX2                !
 ! A7    A(15,4,16)            109.8421         estimate D2E/DX2                !
 ! A8    A(15,4,21)            106.2491         estimate D2E/DX2                !
 ! A9    A(16,4,21)            106.2433         estimate D2E/DX2                !
 ! A10   A(4,5,9)              120.2884         estimate D2E/DX2                !
 ! A11   A(4,5,11)             120.2062         estimate D2E/DX2                !
 ! A12   A(9,5,11)             119.5053         estimate D2E/DX2                !
 ! A13   A(3,6,9)              122.0458         estimate D2E/DX2                !
 ! A14   A(3,6,12)             119.9005         estimate D2E/DX2                !
 ! A15   A(9,6,12)             118.0537         estimate D2E/DX2                !
 ! A16   A(3,7,8)              120.9124         estimate D2E/DX2                !
 ! A17   A(3,7,17)             122.8529         estimate D2E/DX2                !
 ! A18   A(8,7,17)             116.2347         estimate D2E/DX2                !
 ! A19   A(7,8,13)             119.8986         estimate D2E/DX2                !
 ! A20   A(7,8,14)             122.0553         estimate D2E/DX2                !
 ! A21   A(13,8,14)            118.0461         estimate D2E/DX2                !
 ! A22   A(5,9,6)              119.9993         estimate D2E/DX2                !
 ! A23   A(5,9,22)             119.8846         estimate D2E/DX2                !
 ! A24   A(6,9,22)             120.1161         estimate D2E/DX2                !
 ! A25   A(3,10,11)            121.9732         estimate D2E/DX2                !
 ! A26   A(3,10,23)            121.6311         estimate D2E/DX2                !
 ! A27   A(11,10,23)           116.3956         estimate D2E/DX2                !
 ! A28   A(5,11,10)            120.2394         estimate D2E/DX2                !
 ! A29   A(5,11,24)            120.9496         estimate D2E/DX2                !
 ! A30   A(10,11,24)           118.8111         estimate D2E/DX2                !
 ! A31   A(1,12,6)             122.8948         estimate D2E/DX2                !
 ! A32   A(1,12,13)            117.9202         estimate D2E/DX2                !
 ! A33   A(6,12,13)            119.185          estimate D2E/DX2                !
 ! A34   A(2,13,8)             124.7601         estimate D2E/DX2                !
 ! A35   A(2,13,12)            116.0472         estimate D2E/DX2                !
 ! A36   A(8,13,12)            119.1926         estimate D2E/DX2                !
 ! A37   A(8,14,18)            119.9887         estimate D2E/DX2                !
 ! A38   A(8,14,20)            124.0159         estimate D2E/DX2                !
 ! A39   A(18,14,20)           115.9955         estimate D2E/DX2                !
 ! A40   A(4,15,25)            111.8926         estimate D2E/DX2                !
 ! A41   A(4,15,26)            110.5207         estimate D2E/DX2                !
 ! A42   A(4,15,27)            110.766          estimate D2E/DX2                !
 ! A43   A(25,15,26)           107.7561         estimate D2E/DX2                !
 ! A44   A(25,15,27)           107.8432         estimate D2E/DX2                !
 ! A45   A(26,15,27)           107.9091         estimate D2E/DX2                !
 ! A46   A(4,16,28)            110.7702         estimate D2E/DX2                !
 ! A47   A(4,16,29)            110.5149         estimate D2E/DX2                !
 ! A48   A(4,16,30)            111.8992         estimate D2E/DX2                !
 ! A49   A(28,16,29)           107.9084         estimate D2E/DX2                !
 ! A50   A(28,16,30)           107.8461         estimate D2E/DX2                !
 ! A51   A(29,16,30)           107.7484         estimate D2E/DX2                !
 ! A52   A(7,17,19)            121.9737         estimate D2E/DX2                !
 ! A53   A(7,17,31)            121.6496         estimate D2E/DX2                !
 ! A54   A(19,17,31)           116.3767         estimate D2E/DX2                !
 ! A55   A(14,18,19)           119.5059         estimate D2E/DX2                !
 ! A56   A(14,18,32)           121.6096         estimate D2E/DX2                !
 ! A57   A(19,18,32)           118.8845         estimate D2E/DX2                !
 ! A58   A(17,19,18)           120.2417         estimate D2E/DX2                !
 ! A59   A(17,19,33)           119.7618         estimate D2E/DX2                !
 ! A60   A(18,19,33)           119.9965         estimate D2E/DX2                !
 ! A61   A(14,20,34)           111.8401         estimate D2E/DX2                !
 ! A62   A(14,20,35)           110.9644         estimate D2E/DX2                !
 ! A63   A(14,20,36)           110.9685         estimate D2E/DX2                !
 ! A64   A(34,20,35)           106.0263         estimate D2E/DX2                !
 ! A65   A(34,20,36)           106.0312         estimate D2E/DX2                !
 ! A66   A(35,20,36)           110.8044         estimate D2E/DX2                !
 ! D1    D(7,3,6,9)           -179.9811         estimate D2E/DX2                !
 ! D2    D(7,3,6,12)            -0.0059         estimate D2E/DX2                !
 ! D3    D(10,3,6,9)             0.0276         estimate D2E/DX2                !
 ! D4    D(10,3,6,12)         -179.9972         estimate D2E/DX2                !
 ! D5    D(6,3,7,8)              0.0146         estimate D2E/DX2                !
 ! D6    D(6,3,7,17)          -179.9951         estimate D2E/DX2                !
 ! D7    D(10,3,7,8)          -179.9947         estimate D2E/DX2                !
 ! D8    D(10,3,7,17)           -0.0044         estimate D2E/DX2                !
 ! D9    D(6,3,10,11)           -0.0371         estimate D2E/DX2                !
 ! D10   D(6,3,10,23)          179.9959         estimate D2E/DX2                !
 ! D11   D(7,3,10,11)          179.9718         estimate D2E/DX2                !
 ! D12   D(7,3,10,23)            0.0048         estimate D2E/DX2                !
 ! D13   D(15,4,5,9)            62.5653         estimate D2E/DX2                !
 ! D14   D(15,4,5,11)         -117.4921         estimate D2E/DX2                !
 ! D15   D(16,4,5,9)           -62.4421         estimate D2E/DX2                !
 ! D16   D(16,4,5,11)          117.5005         estimate D2E/DX2                !
 ! D17   D(21,4,5,9)          -179.9372         estimate D2E/DX2                !
 ! D18   D(21,4,5,11)            0.0054         estimate D2E/DX2                !
 ! D19   D(5,4,15,25)          -65.3927         estimate D2E/DX2                !
 ! D20   D(5,4,15,26)          174.5183         estimate D2E/DX2                !
 ! D21   D(5,4,15,27)           54.9749         estimate D2E/DX2                !
 ! D22   D(16,4,15,25)          61.158          estimate D2E/DX2                !
 ! D23   D(16,4,15,26)         -58.9311         estimate D2E/DX2                !
 ! D24   D(16,4,15,27)        -178.4745         estimate D2E/DX2                !
 ! D25   D(21,4,15,25)         175.6721         estimate D2E/DX2                !
 ! D26   D(21,4,15,26)          55.583          estimate D2E/DX2                !
 ! D27   D(21,4,15,27)         -63.9604         estimate D2E/DX2                !
 ! D28   D(5,4,16,28)          -54.9645         estimate D2E/DX2                !
 ! D29   D(5,4,16,29)         -174.506          estimate D2E/DX2                !
 ! D30   D(5,4,16,30)           65.4141         estimate D2E/DX2                !
 ! D31   D(15,4,16,28)         178.4893         estimate D2E/DX2                !
 ! D32   D(15,4,16,29)          58.9478         estimate D2E/DX2                !
 ! D33   D(15,4,16,30)         -61.132          estimate D2E/DX2                !
 ! D34   D(21,4,16,28)          63.9716         estimate D2E/DX2                !
 ! D35   D(21,4,16,29)         -55.5699         estimate D2E/DX2                !
 ! D36   D(21,4,16,30)        -175.6498         estimate D2E/DX2                !
 ! D37   D(4,5,9,6)            179.9336         estimate D2E/DX2                !
 ! D38   D(4,5,9,22)            -0.0473         estimate D2E/DX2                !
 ! D39   D(11,5,9,6)            -0.0094         estimate D2E/DX2                !
 ! D40   D(11,5,9,22)         -179.9903         estimate D2E/DX2                !
 ! D41   D(4,5,11,10)         -179.9431         estimate D2E/DX2                !
 ! D42   D(4,5,11,24)            0.0502         estimate D2E/DX2                !
 ! D43   D(9,5,11,10)            0.0            estimate D2E/DX2                !
 ! D44   D(9,5,11,24)          179.9932         estimate D2E/DX2                !
 ! D45   D(3,6,9,5)             -0.0051         estimate D2E/DX2                !
 ! D46   D(3,6,9,22)           179.9758         estimate D2E/DX2                !
 ! D47   D(12,6,9,5)          -179.9808         estimate D2E/DX2                !
 ! D48   D(12,6,9,22)            0.0001         estimate D2E/DX2                !
 ! D49   D(3,6,12,1)           179.9679         estimate D2E/DX2                !
 ! D50   D(3,6,12,13)           -0.016          estimate D2E/DX2                !
 ! D51   D(9,6,12,1)            -0.0559         estimate D2E/DX2                !
 ! D52   D(9,6,12,13)          179.9602         estimate D2E/DX2                !
 ! D53   D(3,7,8,13)            -0.0003         estimate D2E/DX2                !
 ! D54   D(3,7,8,14)           179.9991         estimate D2E/DX2                !
 ! D55   D(17,7,8,13)         -179.9912         estimate D2E/DX2                !
 ! D56   D(17,7,8,14)            0.0082         estimate D2E/DX2                !
 ! D57   D(3,7,17,19)          179.9914         estimate D2E/DX2                !
 ! D58   D(3,7,17,31)            0.0068         estimate D2E/DX2                !
 ! D59   D(8,7,17,19)           -0.0179         estimate D2E/DX2                !
 ! D60   D(8,7,17,31)          179.9975         estimate D2E/DX2                !
 ! D61   D(7,8,13,2)           179.8725         estimate D2E/DX2                !
 ! D62   D(7,8,13,12)           -0.0216         estimate D2E/DX2                !
 ! D63   D(14,8,13,2)           -0.127          estimate D2E/DX2                !
 ! D64   D(14,8,13,12)         179.979          estimate D2E/DX2                !
 ! D65   D(7,8,14,18)            0.0052         estimate D2E/DX2                !
 ! D66   D(7,8,14,20)         -179.9869         estimate D2E/DX2                !
 ! D67   D(13,8,14,18)        -179.9954         estimate D2E/DX2                !
 ! D68   D(13,8,14,20)           0.0125         estimate D2E/DX2                !
 ! D69   D(3,10,11,5)            0.0244         estimate D2E/DX2                !
 ! D70   D(3,10,11,24)        -179.969          estimate D2E/DX2                !
 ! D71   D(23,10,11,5)         179.993          estimate D2E/DX2                !
 ! D72   D(23,10,11,24)         -0.0004         estimate D2E/DX2                !
 ! D73   D(1,12,13,2)            0.1419         estimate D2E/DX2                !
 ! D74   D(1,12,13,8)         -179.955          estimate D2E/DX2                !
 ! D75   D(6,12,13,2)         -179.8733         estimate D2E/DX2                !
 ! D76   D(6,12,13,8)            0.0298         estimate D2E/DX2                !
 ! D77   D(8,14,18,19)          -0.0094         estimate D2E/DX2                !
 ! D78   D(8,14,18,32)         179.9919         estimate D2E/DX2                !
 ! D79   D(20,14,18,19)        179.9833         estimate D2E/DX2                !
 ! D80   D(20,14,18,32)         -0.0154         estimate D2E/DX2                !
 ! D81   D(8,14,20,34)        -179.9613         estimate D2E/DX2                !
 ! D82   D(8,14,20,35)         -61.7924         estimate D2E/DX2                !
 ! D83   D(8,14,20,36)          61.861          estimate D2E/DX2                !
 ! D84   D(18,14,20,34)          0.0463         estimate D2E/DX2                !
 ! D85   D(18,14,20,35)        118.2152         estimate D2E/DX2                !
 ! D86   D(18,14,20,36)       -118.1314         estimate D2E/DX2                !
 ! D87   D(7,17,19,18)           0.0142         estimate D2E/DX2                !
 ! D88   D(7,17,19,33)        -179.9871         estimate D2E/DX2                !
 ! D89   D(31,17,19,18)        179.9996         estimate D2E/DX2                !
 ! D90   D(31,17,19,33)         -0.0017         estimate D2E/DX2                !
 ! D91   D(14,18,19,17)          0.0            estimate D2E/DX2                !
 ! D92   D(14,18,19,33)       -179.9986         estimate D2E/DX2                !
 ! D93   D(32,18,19,17)        179.9987         estimate D2E/DX2                !
 ! D94   D(32,18,19,33)          0.0001         estimate D2E/DX2                !
 --------------------------------------------------------------------------------
 Trust Radius=3.00D-01 FncErr=1.00D-07 GrdErr=1.00D-06 EigMax=2.50D+02 EigMin=1.00D-04
 Number of steps in this run=    208 maximum allowed number of steps=    216.
 GradGradGradGradGradGradGradGradGradGradGradGradGradGradGradGradGradGrad

                          Input orientation:                          
 ---------------------------------------------------------------------
 Center     Atomic      Atomic             Coordinates (Angstroms)
 Number     Number       Type             X           Y           Z
 ---------------------------------------------------------------------
      1          8           0       -0.443400    2.798500   -0.002100
      2          8           0        2.153500    2.592400    0.002000
      3          6           0       -0.175400   -0.811600   -0.000500
      4          6           0       -4.489100   -0.370300    0.001200
      5          6           0       -3.006100   -0.520300   -0.000400
      6          6           0       -0.792400    0.454500   -0.001000
      7          6           0        1.305100   -0.939300   -0.000200
      8          6           0        2.129800    0.202400   -0.000100
      9          6           0       -2.188200    0.602800   -0.000900
     10          6           0       -1.039100   -1.925800   -0.000500
     11          6           0       -2.432000   -1.784100   -0.000200
     12          6           0        0.033700    1.673800   -0.001100
     13          6           0        1.524700    1.545100   -0.000300
     14          6           0        3.530300    0.109700    0.000200
     15          6           0       -5.016200    0.342000   -1.260500
     16          6           0       -5.013500    0.343900    1.263000
     17          6           0        1.965200   -2.184800    0.000200
     18          6           0        4.143800   -1.137000    0.000300
     19          6           0        3.361800   -2.283700    0.000300
     20          6           0        4.447400    1.291900    0.000600
     21          1           0       -4.944300   -1.370300    0.002500
     22          1           0       -2.631200    1.595400   -0.000900
     23          1           0       -0.657100   -2.942800   -0.000200
     24          1           0       -3.049600   -2.678700    0.000300
     25          1           0       -4.677000    1.382000   -1.314100
     26          1           0       -6.111500    0.347000   -1.269300
     27          1           0       -4.674300   -0.169800   -2.167000
     28          1           0       -4.669500   -0.166300    2.169500
     29          1           0       -6.108800    0.348600    1.274200
     30          1           0       -4.674600    1.384200    1.314200
     31          1           0        1.415100   -3.121400    0.000200
     32          1           0        5.225500   -1.239400    0.000400
     33          1           0        3.833100   -3.262500    0.000400
     34          1           0        5.501800    0.990300    0.000100
     35          1           0        4.305900    1.897700   -0.900200
     36          1           0        4.306400    1.896800    0.902100
 ---------------------------------------------------------------------
                    Distance matrix (angstroms):
                    1          2          3          4          5
     1  O    0.000000
     2  O    2.605069   0.000000
     3  C    3.620034   4.124439   0.000000
     4  C    5.138968   7.273357   4.336215   0.000000
     5  C    4.193074   6.025809   2.845649   1.490568   0.000000
     6  C    2.369839   3.639911   1.408438   3.787597   2.418823
     7  C    4.126549   3.632175   1.485997   5.822072   4.331513
     8  C    3.655283   2.390118   2.518361   6.643630   5.186498
     9  C    2.804537   4.775864   2.460059   2.498213   1.389358
    10  C    4.761709   5.532344   1.409759   3.784453   2.417544
    11  C    4.995474   6.338814   2.457234   2.496096   1.388085
    12  C    1.221710   2.310279   2.494180   4.963272   3.748928
    13  C    2.333331   1.221569   2.905921   6.311462   4.979360
    14  C    4.797910   2.838905   3.818508   8.033752   6.566691
    15  C    5.341204   7.619895   5.133394   1.541782   2.524265
    16  C    5.339602   7.616545   5.132136   1.541822   2.524416
    17  C    5.534857   4.780910   2.543196   6.704506   5.242555
    18  C    6.044052   4.227259   4.331440   8.666879   7.176447
    19  C    6.348883   5.023579   3.831300   8.080701   6.607551
    20  C    5.117595   2.636907   5.078877   9.089771   7.670641
    21  H    6.134901   8.129069   4.801517   1.098731   2.116395
    22  H    2.496782   4.887471   3.438692   2.704769   2.148659
    23  H    5.745276   6.207891   2.184960   4.615407   3.374360
    24  H    6.065641   7.406534   3.427403   2.720454   2.158838
    25  H    4.653083   7.060660   5.177048   2.199062   2.852448
    26  H    6.304205   8.658421   6.179765   2.181942   3.464942
    27  H    5.603402   7.678096   5.034454   2.185312   2.756791
    28  H    5.600518   7.672145   5.032122   2.185334   2.756933
    29  H    6.302992   8.655561   6.178686   2.181920   3.465017
    30  H    4.651445   7.057235   5.176174   2.199238   2.852926
    31  H    6.204776   5.761315   2.804437   6.513688   5.129594
    32  H    6.959962   4.911199   5.417816   9.753399   8.262950
    33  H    7.417828   6.091052   4.698402   8.810439   7.368468
    34  H    6.214096   3.711851   5.956294  10.083120   8.640965
    35  H    4.916693   2.435036   5.313362   9.127342   7.753819
    36  H    4.918459   2.434957   5.313817   9.127551   7.754324
                    6          7          8          9         10
     6  C    0.000000
     7  C    2.518370   0.000000
     8  C    2.933054   1.408407   0.000000
     9  C    1.403656   3.818536   4.336525   0.000000
    10  C    2.393050   2.543316   3.817219   2.777454   0.000000
    11  C    2.774819   3.831397   4.975560   2.399319   1.400089
    12  C    1.472798   2.905985   2.560987   2.466552   3.756064
    13  C    2.560930   2.494087   1.472749   3.830608   4.315115
    14  C    4.336430   2.460064   1.403565   5.739720   5.002267
    15  C    4.409023   6.571828   7.257645   3.106798   4.748457
    16  C    4.407677   6.570158   7.255493   3.105929   4.748034
    17  C    3.817101   1.409611   2.392868   5.002144   3.015444
    18  C    5.186419   2.845576   2.418716   6.566668   5.242581
    19  C    4.975452   2.457118   2.774620   6.255748   4.415429
    20  C    5.306293   3.853869   2.560914   6.671285   6.360446
    21  H    4.535216   6.264245   7.246812   3.389576   3.944512
    22  H    2.163987   4.681790   4.960602   1.086970   3.864406
    23  H    3.399993   2.804325   4.202273   3.862065   1.086376
    24  H    3.861592   4.689235   5.926797   3.392676   2.146851
    25  H    4.204118   6.549831   7.032111   2.919893   5.089342
    26  H    5.469275   7.633553   8.339712   4.131169   5.701291
    27  H    4.488926   6.406276   7.150508   3.386679   4.581696
    28  H    4.486465   6.403200   7.146579   3.385115   4.580889
    29  H    5.468223   7.632083   8.337850   4.130569   5.700843
    30  H    4.203043   6.548520   7.030213   2.919291   5.089341
    31  H    4.202394   2.184871   3.399771   5.182030   2.729937
    32  H    6.251753   3.931869   3.414988   7.639152   6.302092
    33  H    5.933914   3.433372   3.860928   7.155180   5.052237
    34  H    6.316964   4.619053   3.462827   7.699757   7.161495
    35  H    5.374388   4.226508   2.901660   6.682727   6.633071
    36  H    5.375275   4.226749   2.902162   6.683538   6.633350
                   11         12         13         14         15
    11  C    0.000000
    12  C    4.246969   0.000000
    13  C    5.170981   1.496544   0.000000
    14  C    6.255837   3.830486   2.466334   0.000000
    15  C    3.575856   5.372269   6.768968   8.642106   0.000000
    16  C    3.576059   5.370364   6.766599   8.639794   2.523502
    17  C    4.415419   4.315030   3.755821   2.777457   7.530872
    18  C    6.607563   4.979309   3.748779   1.389476   9.363902
    19  C    5.815300   5.170886   4.246722   2.399324   8.869882
    20  C    7.535776   4.430192   2.933647   1.496218   9.594395
    21  H    2.546152   5.834984   7.095599   8.602863   2.128922
    22  H    3.385366   2.666053   4.156204   6.338090   2.974194
    23  H    2.119636   4.667998   4.990140   5.181899   5.601787
    24  H    1.087078   5.333948   6.226131   7.146346   3.818607
    25  H    4.097627   4.898960   6.341432   8.408680   1.095230
    26  H    4.437445   6.413440   7.833094   9.727911   1.095347
    27  H    3.511253   5.500477   6.786978   8.490603   1.095708
    28  H    3.511592   5.497050   6.782701   8.486387   3.484748
    29  H    4.437495   6.411930   7.831110   9.725862   2.760167
    30  H    4.098174   4.897139   6.339173   8.406624   2.798562
    31  H    4.072904   4.990211   4.667787   3.861875   7.412565
    32  H    7.676849   5.953278   4.631346   2.166512  10.439498
    33  H    6.437169   6.229165   5.333079   3.385767   9.638070
    34  H    8.404908   5.510653   4.015610   2.159229  10.613092
    35  H    7.730779   4.371522   2.944354   2.146909   9.457884
    36  H    7.731055   4.372810   2.945484   2.146970   9.695623
                   16         17         18         19         20
    16  C    0.000000
    17  C    7.529359   0.000000
    18  C    9.361817   2.417474   0.000000
    19  C    8.868165   1.400097   1.387964   0.000000
    20  C    9.591714   4.271857   2.447801   3.736769   0.000000
    21  H    2.128880   6.957342   9.091094   8.356171   9.761728
    22  H    2.973054   5.951202   7.305247   7.138870   7.085104
    23  H    5.601454   2.729656   5.129284   4.072588   6.632391
    24  H    3.819349   5.039063   7.356755   6.423556   8.483553
    25  H    2.798630   7.652991   9.267120   8.932374   9.219069
    26  H    2.760101   8.558897  10.439603   9.913419  10.676884
    27  H    3.484802   7.269109   9.131898   8.587471   9.488966
    28  H    1.095620   7.266323   9.128085   8.584322   9.484110
    29  H    1.095367   8.557492  10.437703   9.911816  10.674513
    30  H    1.095308   7.651882   9.265364   8.931044   9.216558
    31  H    7.411469   1.086200   3.373966   2.119288   5.354630
    32  H   10.437343   3.394604   1.086536   2.136338   2.648192
    33  H    9.636525   2.156499   2.148089   1.086358   4.595642
    34  H   10.610574   4.752768   2.523801   3.911352   1.096687
    35  H    9.692520   4.791284   3.169634   4.380220   1.094740
    36  H    9.455278   4.791044   3.169168   4.379737   1.094754
                   21         22         23         24         25
    21  H    0.000000
    22  H    3.761093   0.000000
    23  H    4.566492   4.948973   0.000000
    24  H    2.302565   4.294530   2.407032   0.000000
    25  H    3.062685   2.440355   6.048952   4.567862   0.000000
    26  H    2.434944   3.908942   6.494912   4.487981   1.769469
    27  H    2.494159   3.461528   5.340641   3.692075   1.770742
    28  H    2.494197   3.459608   5.340028   3.693462   3.812185
    29  H    2.434728   3.908208   6.494493   4.488437   3.133251
    30  H    3.062771   2.439175   6.049040   4.568820   2.628302
    31  H    6.596084   6.214559   2.079882   4.486594   7.689062
    32  H   10.170643   8.352474   6.124260   8.399337  10.327592
    33  H    8.979041   8.086184   4.501567   6.907415   9.783716
    34  H   10.709502   8.155479   7.307621   9.305267  10.270760
    35  H    9.851949   7.001677   6.990838   8.709634   9.007206
    36  H    9.851836   7.002610   6.990866   8.709718   9.267040
                   26         27         28         29         30
    26  H    0.000000
    27  H    1.771579   0.000000
    28  H    3.764065   4.336504   0.000000
    29  H    2.543502   3.764092   1.771516   0.000000
    30  H    3.132880   3.812305   1.770767   1.769462   0.000000
    31  H    8.383981   7.105596   7.103579   8.382902   7.688399
    32  H   11.517655  10.190570  10.186637  11.515670  10.325760
    33  H   10.655313   9.307968   9.305141  10.653825   9.782579
    34  H   11.700169  10.468771  10.464194  11.697912  10.268453
    35  H   10.538649   9.301792   9.707778  10.751451   9.263727
    36  H   10.754046   9.713042   9.296745  10.536212   9.005051
                   31         32         33         34         35
    31  H    0.000000
    32  H    4.249832   0.000000
    33  H    2.422113   2.455954   0.000000
    34  H    5.797171   2.246754   4.568464   0.000000
    35  H    5.861639   3.390891   5.259495   1.750455   0.000000
    36  H    5.861345   3.390215   5.258845   1.750522   1.802300
                   36
    36  H    0.000000
 Stoichiometry    C18H16O2
 Framework group  C1[X(C18H16O2)]
 Deg. of freedom   102
 Full point group                 C1      NOp   1
 Largest Abelian subgroup         C1      NOp   1
 Largest concise Abelian subgroup C1      NOp   1
                         Standard orientation:                         
 ---------------------------------------------------------------------
 Center     Atomic      Atomic             Coordinates (Angstroms)
 Number     Number       Type             X           Y           Z
 ---------------------------------------------------------------------
      1          8           0       -0.329099    2.759551   -0.002186
      2          8           0        2.266806    2.541273    0.001914
      3          6           0       -0.078035   -0.851766   -0.000586
      4          6           0       -4.389618   -0.390238    0.001114
      5          6           0       -2.907338   -0.547192   -0.000486
      6          6           0       -0.689090    0.417214   -0.001086
      7          6           0        1.401849   -0.986409   -0.000286
      8          6           0        2.231895    0.151410   -0.000186
      9          6           0       -2.084179    0.572059   -0.000986
     10          6           0       -0.946952   -1.961903   -0.000586
     11          6           0       -2.339172   -1.813671   -0.000286
     12          6           0        0.142720    1.632626   -0.001186
     13          6           0        1.633100    1.496934   -0.000386
     14          6           0        3.631945    0.052142    0.000114
     15          6           0       -4.913371    0.324527   -1.260586
     16          6           0       -4.910662    0.326414    1.262914
     17          6           0        2.056100   -2.234992    0.000114
     18          6           0        4.239591   -1.197422    0.000214
     19          6           0        3.452221   -2.340441    0.000214
     20          6           0        4.554580    1.230027    0.000514
     21          1           0       -4.849503   -1.388091    0.002414
     22          1           0       -2.522518    1.566726   -0.000986
     23          1           0       -0.569726   -2.980683   -0.000286
     24          1           0       -2.960961   -2.705364    0.000214
     25          1           0       -4.569297    1.362924   -1.314186
     26          1           0       -6.008636    0.334664   -1.269386
     27          1           0       -4.573876   -0.188871   -2.167086
     28          1           0       -4.569059   -0.185394    2.169414
     29          1           0       -6.005928    0.336252    1.274114
     30          1           0       -4.566886    1.365113    1.314114
     31          1           0        1.501613   -3.169001    0.000114
     32          1           0        5.320799   -1.304894    0.000314
     33          1           0        3.918925   -3.321441    0.000314
     34          1           0        5.607554    0.923485    0.000014
     35          1           0        4.415923    1.836484   -0.900286
     36          1           0        4.416419    1.835582    0.902014
 ---------------------------------------------------------------------
 Rotational constants (GHZ):           0.7468598           0.2079031           0.1687192
 Standard basis: 6-311++G(d,p) (5D, 7F)
 There are   572 symmetry adapted cartesian basis functions of A   symmetry.
 There are   552 symmetry adapted basis functions of A   symmetry.
   552 basis functions,   864 primitive gaussians,   572 cartesian basis functions
    70 alpha electrons       70 beta electrons
       nuclear repulsion energy      1448.0126585393 Hartrees.
 NAtoms=   36 NActive=   36 NUniq=   36 SFac= 1.00D+00 NAtFMM=   60 NAOKFM=F Big=F
 Integral buffers will be    131072 words long.
 Raffenetti 2 integral format.
 Two-electron integral symmetry is turned on.
 R6APFD:  NTU= -4 IXU= 1 FactS= 1.050
 Nuclear repulsion after empirical dispersion term =     1447.9819757015 Hartrees.
 One-electron integrals computed using PRISM.
 NBasis=   552 RedAO= T EigKep=  1.33D-06  NBF=   552
 NBsUse=   543 1.00D-06 EigRej=  8.19D-07 NBFU=   543
 ExpMin= 3.60D-02 ExpMax= 8.59D+03 ExpMxC= 1.30D+03 IAcc=3 IRadAn=         5 AccDes= 0.00D+00
 Harris functional with IExCor= 1009 and IRadAn=       5 diagonalized for initial guess.
 HarFok:  IExCor= 1009 AccDes= 0.00D+00 IRadAn=         5 IDoV= 1 UseB2=F ITyADJ=14
 ICtDFT=  3500011 ScaDFX=  1.000000  1.000000  1.000000  1.000000
 FoFCou: FMM=F IPFlag=           0 FMFlag=      100000 FMFlg1=           0
         NFxFlg=           0 DoJE=T BraDBF=F KetDBF=T FulRan=T
         wScrn=  0.000000 ICntrl=       500 IOpCl=  0 I1Cent=   200000004 NGrid=           0
         NMat0=    1 NMatS0=      1 NMatT0=    0 NMatD0=    1 NMtDS0=    0 NMtDT0=    0
 Petite list used in FoFCou.
 Requested convergence on RMS density matrix=1.00D-08 within  32 cycles.
 Requested convergence on MAX density matrix=1.00D-06.
 Requested convergence on             energy=1.00D-06.
 No special actions if energy rises.
 SCF Done:  E(RM08HX) =  -846.010725787     A.U. after   16 cycles
            NFock= 16  Conv=0.66D-08     -V/T= 2.0048
 QCSCF skips out because SCF is already converged.

 **********************************************************************

            Population analysis using the SCF Density.

 **********************************************************************

 Orbital symmetries:
       Occupied  (A) (A) (A) (A) (A) (A) (A) (A) (A) (A) (A) (A)
                 (A) (A) (A) (A) (A) (A) (A) (A) (A) (A) (A) (A)
                 (A) (A) (A) (A) (A) (A) (A) (A) (A) (A) (A) (A)
                 (A) (A) (A) (A) (A) (A) (A) (A) (A) (A) (A) (A)
                 (A) (A) (A) (A) (A) (A) (A) (A) (A) (A) (A) (A)
                 (A) (A) (A) (A) (A) (A) (A) (A) (A) (A)
       Virtual   (A) (A) (A) (A) (A) (A) (A) (A) (A) (A) (A) (A)
                 (A) (A) (A) (A) (A) (A) (A) (A) (A) (A) (A) (A)
                 (A) (A) (A) (A) (A) (A) (A) (A) (A) (A) (A) (A)
                 (A) (A) (A) (A) (A) (A) (A) (A) (A) (A) (A) (A)
                 (A) (A) (A) (A) (A) (A) (A) (A) (A) (A) (A) (A)
                 (A) (A) (A) (A) (A) (A) (A) (A) (A) (A) (A) (A)
                 (A) (A) (A) (A) (A) (A) (A) (A) (A) (A) (A) (A)
                 (A) (A) (A) (A) (A) (A) (A) (A) (A) (A) (A) (A)
                 (A) (A) (A) (A) (A) (A) (A) (A) (A) (A) (A) (A)
                 (A) (A) (A) (A) (A) (A) (A) (A) (A) (A) (A) (A)
                 (A) (A) (A) (A) (A) (A) (A) (A) (A) (A) (A) (A)
                 (A) (A) (A) (A) (A) (A) (A) (A) (A) (A) (A) (A)
                 (A) (A) (A) (A) (A) (A) (A) (A) (A) (A) (A) (A)
                 (A) (A) (A) (A) (A) (A) (A) (A) (A) (A) (A) (A)
                 (A) (A) (A) (A) (A) (A) (A) (A) (A) (A) (A) (A)
                 (A) (A) (A) (A) (A) (A) (A) (A) (A) (A) (A) (A)
                 (A) (A) (A) (A) (A) (A) (A) (A) (A) (A) (A) (A)
                 (A) (A) (A) (A) (A) (A) (A) (A) (A) (A) (A) (A)
                 (A) (A) (A) (A) (A) (A) (A) (A) (A) (A) (A) (A)
                 (A) (A) (A) (A) (A) (A) (A) (A) (A) (A) (A) (A)
                 (A) (A) (A) (A) (A) (A) (A) (A) (A) (A) (A) (A)
                 (A) (A) (A) (A) (A) (A) (A) (A) (A) (A) (A) (A)
                 (A) (A) (A) (A) (A) (A) (A) (A) (A) (A) (A) (A)
                 (A) (A) (A) (A) (A) (A) (A) (A) (A) (A) (A) (A)
                 (A) (A) (A) (A) (A) (A) (A) (A) (A) (A) (A) (A)
                 (A) (A) (A) (A) (A) (A) (A) (A) (A) (A) (A) (A)
                 (A) (A) (A) (A) (A) (A) (A) (A) (A) (A) (A) (A)
                 (A) (A) (A) (A) (A) (A) (A) (A) (A) (A) (A) (A)
                 (A) (A) (A) (A) (A) (A) (A) (A) (A) (A) (A) (A)
                 (A) (A) (A) (A) (A) (A) (A) (A) (A) (A) (A) (A)
                 (A) (A) (A) (A) (A) (A) (A) (A) (A) (A) (A) (A)
                 (A) (A) (A) (A) (A) (A) (A) (A) (A) (A) (A) (A)
                 (A) (A) (A) (A) (A) (A) (A) (A) (A) (A) (A) (A)
                 (A) (A) (A) (A) (A) (A) (A) (A) (A) (A) (A) (A)
                 (A) (A) (A) (A) (A) (A) (A) (A) (A) (A) (A) (A)
                 (A) (A) (A) (A) (A) (A) (A) (A) (A) (A) (A) (A)
                 (A) (A) (A) (A) (A) (A) (A) (A) (A) (A) (A) (A)
                 (A) (A) (A) (A) (A) (A) (A) (A) (A) (A) (A) (A)
                 (A) (A) (A) (A) (A) (A) (A) (A) (A) (A) (A) (A)
                 (A) (A) (A) (A) (A)
 The electronic state is 1-A.
 Alpha  occ. eigenvalues --  -19.61657 -19.61494 -10.63142 -10.63024 -10.58253
 Alpha  occ. eigenvalues --  -10.57945 -10.56939 -10.56472 -10.56379 -10.56116
 Alpha  occ. eigenvalues --  -10.56044 -10.55869 -10.55836 -10.55789 -10.55550
 Alpha  occ. eigenvalues --  -10.54999 -10.54942 -10.52564 -10.52563 -10.52322
 Alpha  occ. eigenvalues --   -1.19749  -1.15923  -1.01678  -0.99208  -0.94232
 Alpha  occ. eigenvalues --   -0.90318  -0.89999  -0.87963  -0.84559  -0.81878
 Alpha  occ. eigenvalues --   -0.78806  -0.78034  -0.75146  -0.72217  -0.70736
 Alpha  occ. eigenvalues --   -0.68950  -0.66860  -0.62905  -0.61082  -0.58798
 Alpha  occ. eigenvalues --   -0.57608  -0.56386  -0.54230  -0.53599  -0.53425
 Alpha  occ. eigenvalues --   -0.53128  -0.52425  -0.51722  -0.50563  -0.50175
 Alpha  occ. eigenvalues --   -0.49438  -0.49319  -0.47841  -0.46677  -0.45975
 Alpha  occ. eigenvalues --   -0.45918  -0.45036  -0.43881  -0.43772  -0.42879
 Alpha  occ. eigenvalues --   -0.42246  -0.41127  -0.40896  -0.39879  -0.36880
 Alpha  occ. eigenvalues --   -0.35981  -0.33136  -0.32496  -0.32337  -0.29415
 Alpha virt. eigenvalues --   -0.09371  -0.03880  -0.03539  -0.02737  -0.01913
 Alpha virt. eigenvalues --   -0.01896  -0.01012  -0.00894  -0.00885   0.00526
 Alpha virt. eigenvalues --    0.00829   0.00969   0.01613   0.01614   0.02258
 Alpha virt. eigenvalues --    0.02381   0.02825   0.03143   0.03306   0.03979
 Alpha virt. eigenvalues --    0.04164   0.04423   0.05500   0.05798   0.06375
 Alpha virt. eigenvalues --    0.06528   0.06603   0.07286   0.07290   0.08078
 Alpha virt. eigenvalues --    0.08541   0.09023   0.09258   0.09572   0.09699
 Alpha virt. eigenvalues --    0.10249   0.10624   0.10851   0.10871   0.11202
 Alpha virt. eigenvalues --    0.11611   0.12205   0.12271   0.12654   0.12735
 Alpha virt. eigenvalues --    0.13117   0.13188   0.13467   0.13539   0.13828
 Alpha virt. eigenvalues --    0.14125   0.14476   0.14956   0.15097   0.15327
 Alpha virt. eigenvalues --    0.15628   0.15886   0.16054   0.16515   0.16607
 Alpha virt. eigenvalues --    0.17469   0.17841   0.17897   0.18500   0.19016
 Alpha virt. eigenvalues --    0.19266   0.19765   0.19946   0.19999   0.20638
 Alpha virt. eigenvalues --    0.20845   0.21199   0.21611   0.21807   0.22288
 Alpha virt. eigenvalues --    0.22943   0.23089   0.23521   0.23768   0.24063
 Alpha virt. eigenvalues --    0.24675   0.24878   0.25253   0.25785   0.26185
 Alpha virt. eigenvalues --    0.26691   0.27135   0.27170   0.27769   0.27830
 Alpha virt. eigenvalues --    0.28168   0.28374   0.28470   0.29067   0.30195
 Alpha virt. eigenvalues --    0.30614   0.30739   0.30882   0.31585   0.31745
 Alpha virt. eigenvalues --    0.32233   0.32428   0.32983   0.33228   0.33258
 Alpha virt. eigenvalues --    0.33721   0.34552   0.35123   0.35285   0.35941
 Alpha virt. eigenvalues --    0.36919   0.37126   0.37422   0.37628   0.38120
 Alpha virt. eigenvalues --    0.38340   0.38990   0.39870   0.40776   0.42112
 Alpha virt. eigenvalues --    0.43022   0.43875   0.44900   0.45391   0.45916
 Alpha virt. eigenvalues --    0.47323   0.47422   0.48469   0.48713   0.50709
 Alpha virt. eigenvalues --    0.52080   0.53224   0.54007   0.54704   0.55542
 Alpha virt. eigenvalues --    0.55790   0.56814   0.56989   0.57308   0.58106
 Alpha virt. eigenvalues --    0.58256   0.59221   0.59834   0.60236   0.60377
 Alpha virt. eigenvalues --    0.62523   0.62868   0.63327   0.63462   0.63944
 Alpha virt. eigenvalues --    0.64306   0.65384   0.65594   0.66350   0.67213
 Alpha virt. eigenvalues --    0.67337   0.67527   0.68040   0.68264   0.68836
 Alpha virt. eigenvalues --    0.69094   0.69479   0.69786   0.70508   0.70940
 Alpha virt. eigenvalues --    0.71364   0.71503   0.72591   0.72599   0.73838
 Alpha virt. eigenvalues --    0.74257   0.74942   0.75427   0.76408   0.76542
 Alpha virt. eigenvalues --    0.77828   0.78050   0.78205   0.78662   0.79219
 Alpha virt. eigenvalues --    0.79792   0.81007   0.81991   0.82728   0.83013
 Alpha virt. eigenvalues --    0.83160   0.85275   0.86375   0.86991   0.87795
 Alpha virt. eigenvalues --    0.89230   0.90229   0.91944   0.92432   0.92802
 Alpha virt. eigenvalues --    0.92955   0.94216   0.95365   0.95400   0.97116
 Alpha virt. eigenvalues --    0.97186   0.97588   0.98082   0.99307   0.99880
 Alpha virt. eigenvalues --    1.00429   1.01169   1.01841   1.03121   1.03144
 Alpha virt. eigenvalues --    1.04271   1.04522   1.05948   1.07776   1.08135
 Alpha virt. eigenvalues --    1.09083   1.09674   1.11210   1.11382   1.13549
 Alpha virt. eigenvalues --    1.13886   1.15223   1.16664   1.17203   1.17575
 Alpha virt. eigenvalues --    1.18797   1.20130   1.20975   1.21621   1.23086
 Alpha virt. eigenvalues --    1.26563   1.27571   1.28688   1.28967   1.29668
 Alpha virt. eigenvalues --    1.32474   1.33385   1.35101   1.37148   1.40440
 Alpha virt. eigenvalues --    1.41019   1.42006   1.42820   1.44751   1.46552
 Alpha virt. eigenvalues --    1.46891   1.48207   1.49414   1.50756   1.51467
 Alpha virt. eigenvalues --    1.51640   1.52110   1.52223   1.52611   1.53536
 Alpha virt. eigenvalues --    1.54112   1.55673   1.56268   1.57907   1.59163
 Alpha virt. eigenvalues --    1.59471   1.60067   1.60252   1.60826   1.61961
 Alpha virt. eigenvalues --    1.62234   1.63224   1.63751   1.64776   1.66461
 Alpha virt. eigenvalues --    1.66595   1.67899   1.68816   1.70086   1.70417
 Alpha virt. eigenvalues --    1.71404   1.72648   1.74411   1.74486   1.75681
 Alpha virt. eigenvalues --    1.75766   1.76588   1.77188   1.77943   1.78203
 Alpha virt. eigenvalues --    1.80475   1.80727   1.80938   1.82753   1.83458
 Alpha virt. eigenvalues --    1.84549   1.85281   1.88455   1.89274   1.89623
 Alpha virt. eigenvalues --    1.90096   1.91137   1.91274   1.92365   1.93805
 Alpha virt. eigenvalues --    1.95581   1.96525   1.96989   1.97253   1.98696
 Alpha virt. eigenvalues --    2.00388   2.00508   2.01395   2.01940   2.05918
 Alpha virt. eigenvalues --    2.06091   2.06943   2.07997   2.09315   2.09669
 Alpha virt. eigenvalues --    2.10547   2.10624   2.13302   2.14431   2.16038
 Alpha virt. eigenvalues --    2.17838   2.18610   2.18725   2.21741   2.22189
 Alpha virt. eigenvalues --    2.24013   2.28706   2.29379   2.30347   2.30395
 Alpha virt. eigenvalues --    2.32591   2.32636   2.35779   2.36646   2.37119
 Alpha virt. eigenvalues --    2.41583   2.42751   2.44322   2.45116   2.45643
 Alpha virt. eigenvalues --    2.47945   2.49086   2.50303   2.50535   2.52812
 Alpha virt. eigenvalues --    2.53466   2.53751   2.54957   2.55662   2.58040
 Alpha virt. eigenvalues --    2.58624   2.59015   2.61840   2.62490   2.64026
 Alpha virt. eigenvalues --    2.65844   2.66015   2.66494   2.68009   2.68800
 Alpha virt. eigenvalues --    2.70068   2.70570   2.71374   2.71437   2.72656
 Alpha virt. eigenvalues --    2.74142   2.74514   2.74753   2.75115   2.76043
 Alpha virt. eigenvalues --    2.77448   2.78645   2.82009   2.83232   2.85909
 Alpha virt. eigenvalues --    2.86260   2.86800   2.87813   2.87989   2.88842
 Alpha virt. eigenvalues --    2.90508   2.91644   2.93146   2.94080   2.95068
 Alpha virt. eigenvalues --    2.96736   2.96913   2.98104   2.99327   3.01182
 Alpha virt. eigenvalues --    3.01941   3.04175   3.04351   3.06823   3.11315
 Alpha virt. eigenvalues --    3.13040   3.14422   3.15678   3.18328   3.21524
 Alpha virt. eigenvalues --    3.21788   3.25043   3.25888   3.28929   3.31283
 Alpha virt. eigenvalues --    3.32206   3.35333   3.37701   3.38395   3.45267
 Alpha virt. eigenvalues --    3.47163   3.47643   3.47775   3.51683   3.52369
 Alpha virt. eigenvalues --    3.53924   3.57326   3.59660   3.61278   3.65450
 Alpha virt. eigenvalues --    3.68851   3.75289   3.76717   3.77401   3.79791
 Alpha virt. eigenvalues --    3.80954   3.84601   3.85877   3.86328   3.86634
 Alpha virt. eigenvalues --    3.87790   3.91859   3.96915   4.07960   4.11449
 Alpha virt. eigenvalues --    4.14887   4.18029   4.26444   4.32382   4.34617
 Alpha virt. eigenvalues --    4.35361   4.42208   4.46048   4.63453   4.87901
 Alpha virt. eigenvalues --    4.89468   4.94068   5.12642   5.21269   5.31824
 Alpha virt. eigenvalues --    5.51034   5.80559   5.98145  23.57454  23.73698
 Alpha virt. eigenvalues --   23.92202  23.95655  23.96413  23.97755  23.98694
 Alpha virt. eigenvalues --   24.00101  24.01077  24.01783  24.04231  24.06381
 Alpha virt. eigenvalues --   24.09856  24.10591  24.12355  24.13014  24.21740
 Alpha virt. eigenvalues --   24.22283  50.01307  50.11709
          Condensed to atoms (all electrons):
               1          2          3          4          5          6
     1  O    7.835884   0.034681   0.025965   0.018310   0.227977  -0.230155
     2  O    0.034681   7.981081  -0.157627  -0.000583  -0.004435   0.075565
     3  C    0.025965  -0.157627  10.220569  -1.149436  -0.806369   3.633866
     4  C    0.018310  -0.000583  -1.149436  20.677748  -7.810361  -2.007580
     5  C    0.227977  -0.004435  -0.806369  -7.810361  30.457435  -9.833101
     6  C   -0.230155   0.075565   3.633866  -2.007580  -9.833101  29.169708
     7  C   -0.142685  -0.038011   1.732912   0.222066  -2.616076   1.813417
     8  C    0.008953   0.376615  -1.538795  -0.098594  -0.017299   0.693468
     9  C    0.293409  -0.020150   0.438244  -3.683597   1.549764  -0.368204
    10  C    0.018245  -0.029468  -0.387205   0.464480  -3.314963  -0.651163
    11  C   -0.001875  -0.011631  -3.733672   0.576647  -0.763695  -2.181478
    12  C    0.560255  -0.561840   0.882669  -0.953038  -1.822867  -2.469257
    13  C   -0.464799   0.335394   0.299071  -0.184596   1.607277 -10.556870
    14  C   -0.026922  -0.065804  -0.920330   0.033111   0.371295  -0.407558
    15  C    0.000918   0.000004  -0.037377  -0.491357   0.579343  -0.255405
    16  C    0.000963  -0.000005  -0.039767  -0.488159   0.583997  -0.260480
    17  C   -0.015868   0.038292  -1.761825  -0.111119  -1.508768  -1.474230
    18  C    0.001840  -0.033510   0.087977  -0.016197   0.046465   0.483813
    19  C   -0.010137   0.004910  -1.018464  -0.011627  -0.504304  -1.422488
    20  C    0.005398   0.188177  -0.429458   0.001532  -0.001997   0.323851
    21  H    0.000155  -0.000040  -0.012328   0.879272  -0.210498  -0.044434
    22  H   -0.033071  -0.000147   0.067291  -0.085829  -0.596368   0.607604
    23  H   -0.000153  -0.000182  -0.071969   0.027833   0.008155  -0.013259
    24  H   -0.000261  -0.000036  -0.008849  -0.102883  -0.219188   0.089187
    25  H    0.000561   0.000001  -0.005285   0.202643  -0.073024  -0.064047
    26  H    0.000049  -0.000002  -0.002755  -0.151620   0.044789  -0.001222
    27  H    0.000101   0.000006   0.003252  -0.016687  -0.010835   0.003028
    28  H    0.000100   0.000006   0.003376  -0.016425  -0.011731   0.003186
    29  H    0.000050  -0.000002  -0.002844  -0.150012   0.043660  -0.001420
    30  H    0.000558   0.000002  -0.005226   0.202066  -0.072181  -0.064224
    31  H    0.000509   0.000426  -0.010772  -0.002767  -0.006234   0.022795
    32  H    0.000204  -0.001088   0.007496  -0.000023   0.000285   0.010308
    33  H   -0.000189   0.000316  -0.009043   0.000274  -0.002769  -0.022754
    34  H    0.000052   0.018752  -0.018004  -0.000021  -0.001600   0.002726
    35  H   -0.000270  -0.028659   0.011321  -0.000006   0.000382  -0.014102
    36  H   -0.000274  -0.028309   0.011128  -0.000002   0.000398  -0.013937
               7          8          9         10         11         12
     1  O   -0.142685   0.008953   0.293409   0.018245  -0.001875   0.560255
     2  O   -0.038011   0.376615  -0.020150  -0.029468  -0.011631  -0.561840
     3  C    1.732912  -1.538795   0.438244  -0.387205  -3.733672   0.882669
     4  C    0.222066  -0.098594  -3.683597   0.464480   0.576647  -0.953038
     5  C   -2.616076  -0.017299   1.549764  -3.314963  -0.763695  -1.822867
     6  C    1.813417   0.693468  -0.368204  -0.651163  -2.181478  -2.469257
     7  C   14.328516  -0.311660  -1.178063  -1.324196  -2.065586   0.606307
     8  C   -0.311660  14.408657  -0.640042  -1.880952  -1.413215  -3.419238
     9  C   -1.178063  -0.640042  13.700419   0.015904  -1.395182  -4.206888
    10  C   -1.324196  -1.880952   0.015904  11.577224   2.207225  -0.387038
    11  C   -2.065586  -1.413215  -1.395182   2.207225  13.899938   0.335166
    12  C    0.606307  -3.419238  -4.206888  -0.387038   0.335166  20.155029
    13  C   -0.844326  -4.054400   2.213722   1.149620   0.899139   0.461818
    14  C   -1.768518   2.864973   0.376135  -0.885511  -0.465189  -2.299077
    15  C   -0.031609  -0.003356  -0.013245   0.006093   0.100480   0.034469
    16  C   -0.032275  -0.003704  -0.019210   0.006486   0.104431   0.034404
    17  C   -2.965718   1.412280  -0.606818  -0.080659   0.297086   0.779489
    18  C    4.693676  -2.288111   0.256921  -0.271998  -0.120017  -1.079632
    19  C   -3.618407   0.409275  -0.256007   0.041792   0.402137   0.806818
    20  C   -1.299346   0.329920  -0.088627  -0.231825  -0.058697  -0.170208
    21  H   -0.020012  -0.001517  -0.119179  -0.081270   0.023033  -0.007384
    22  H    0.106563  -0.016736   0.276260   0.066491  -0.022173   0.051007
    23  H   -0.096462  -0.041222   0.021738   0.422894   0.135991  -0.015701
    24  H    0.045067  -0.004979   0.081115   0.043750   0.317750   0.009737
    25  H   -0.005614   0.000387  -0.084937   0.004202   0.017664   0.004342
    26  H    0.001195  -0.000352   0.023881   0.006894   0.019775  -0.002552
    27  H    0.000411   0.000299   0.003923  -0.001100   0.000743   0.001418
    28  H    0.000461   0.000318   0.004180  -0.001044   0.000775   0.001431
    29  H    0.001181  -0.000362   0.023841   0.006780   0.019830  -0.002607
    30  H   -0.005615   0.000411  -0.085250   0.004238   0.017578   0.004448
    31  H    0.012836   0.073212  -0.016842   0.010327  -0.094487  -0.013377
    32  H    0.081200  -0.024658   0.002189  -0.012758  -0.003768  -0.010631
    33  H   -0.056939   0.034747  -0.003632   0.009628   0.008400   0.013199
    34  H   -0.074488   0.024843  -0.008296   0.003829   0.000535   0.025656
    35  H    0.004215   0.002853   0.003208  -0.000824   0.000242   0.007245
    36  H    0.004156   0.003081   0.003197  -0.000864   0.000227   0.006968
              13         14         15         16         17         18
     1  O   -0.464799  -0.026922   0.000918   0.000963  -0.015868   0.001840
     2  O    0.335394  -0.065804   0.000004  -0.000005   0.038292  -0.033510
     3  C    0.299071  -0.920330  -0.037377  -0.039767  -1.761825   0.087977
     4  C   -0.184596   0.033111  -0.491357  -0.488159  -0.111119  -0.016197
     5  C    1.607277   0.371295   0.579343   0.583997  -1.508768   0.046465
     6  C  -10.556870  -0.407558  -0.255405  -0.260480  -1.474230   0.483813
     7  C   -0.844326  -1.768518  -0.031609  -0.032275  -2.965718   4.693676
     8  C   -4.054400   2.864973  -0.003356  -0.003704   1.412280  -2.288111
     9  C    2.213722   0.376135  -0.013245  -0.019210  -0.606818   0.256921
    10  C    1.149620  -0.885511   0.006093   0.006486  -0.080659  -0.271998
    11  C    0.899139  -0.465189   0.100480   0.104431   0.297086  -0.120017
    12  C    0.461818  -2.299077   0.034469   0.034404   0.779489  -1.079632
    13  C   21.679341  -0.899769   0.016320   0.016840  -0.242027  -2.755116
    14  C   -0.899769  14.018311   0.001188   0.001199   2.940438  -4.623448
    15  C    0.016320   0.001188   6.252549  -0.276115  -0.003280   0.000269
    16  C    0.016840   0.001199  -0.276115   6.253675  -0.003274   0.000266
    17  C   -0.242027   2.940438  -0.003280  -0.003274  12.258086  -4.526862
    18  C   -2.755116  -4.623448   0.000269   0.000266  -4.526862  17.100465
    19  C    0.137738  -1.629426  -0.000975  -0.000978   0.943062   0.460993
    20  C   -1.501729  -1.409854  -0.000064  -0.000068   0.720873  -0.733978
    21  H    0.005150  -0.000724  -0.080821  -0.080546  -0.006406   0.000107
    22  H   -0.146216  -0.009447  -0.032071  -0.032082  -0.002060  -0.002496
    23  H    0.020811  -0.059953   0.001509   0.001510   0.000598   0.018654
    24  H   -0.006713   0.000429  -0.002701  -0.002690   0.039367  -0.003421
    25  H    0.009576   0.000434   0.357854  -0.020632   0.000892   0.000098
    26  H   -0.000840   0.000030   0.450121  -0.022695   0.000100  -0.000021
    27  H   -0.000024  -0.000091   0.360341   0.030898  -0.000136   0.000051
    28  H   -0.000069  -0.000093   0.030961   0.360337  -0.000137   0.000051
    29  H   -0.000846   0.000030  -0.022744   0.450169   0.000093  -0.000022
    30  H    0.009680   0.000441  -0.020702   0.357804   0.000896   0.000101
    31  H   -0.039105   0.101259  -0.000123  -0.000122   0.467981  -0.026140
    32  H   -0.019787  -0.093525   0.000001   0.000001  -0.041923   0.532685
    33  H    0.003680  -0.030374  -0.000017  -0.000018  -0.026465  -0.076517
    34  H    0.030556  -0.146425  -0.000003  -0.000004   0.043582  -0.120274
    35  H    0.055104   0.009184  -0.000005   0.000005  -0.002058  -0.027541
    36  H    0.052930   0.008871   0.000004  -0.000006  -0.002043  -0.026506
              19         20         21         22         23         24
     1  O   -0.010137   0.005398   0.000155  -0.033071  -0.000153  -0.000261
     2  O    0.004910   0.188177  -0.000040  -0.000147  -0.000182  -0.000036
     3  C   -1.018464  -0.429458  -0.012328   0.067291  -0.071969  -0.008849
     4  C   -0.011627   0.001532   0.879272  -0.085829   0.027833  -0.102883
     5  C   -0.504304  -0.001997  -0.210498  -0.596368   0.008155  -0.219188
     6  C   -1.422488   0.323851  -0.044434   0.607604  -0.013259   0.089187
     7  C   -3.618407  -1.299346  -0.020012   0.106563  -0.096462   0.045067
     8  C    0.409275   0.329920  -0.001517  -0.016736  -0.041222  -0.004979
     9  C   -0.256007  -0.088627  -0.119179   0.276260   0.021738   0.081115
    10  C    0.041792  -0.231825  -0.081270   0.066491   0.422894   0.043750
    11  C    0.402137  -0.058697   0.023033  -0.022173   0.135991   0.317750
    12  C    0.806818  -0.170208  -0.007384   0.051007  -0.015701   0.009737
    13  C    0.137738  -1.501729   0.005150  -0.146216   0.020811  -0.006713
    14  C   -1.629426  -1.409854  -0.000724  -0.009447  -0.059953   0.000429
    15  C   -0.000975  -0.000064  -0.080821  -0.032071   0.001509  -0.002701
    16  C   -0.000978  -0.000068  -0.080546  -0.032082   0.001510  -0.002690
    17  C    0.943062   0.720873  -0.006406  -0.002060   0.000598   0.039367
    18  C    0.460993  -0.733978   0.000107  -0.002496   0.018654  -0.003421
    19  C   11.734522   0.052460  -0.000496   0.007900  -0.000093   0.013977
    20  C    0.052460   9.725966  -0.000101  -0.002369  -0.007441   0.000064
    21  H   -0.000496  -0.000101   0.492760   0.003273   0.006981  -0.017662
    22  H    0.007900  -0.002369   0.003273   0.582399   0.008199   0.002005
    23  H   -0.000093  -0.007441   0.006981   0.008199   0.519230  -0.022914
    24  H    0.013977   0.000064  -0.017662   0.002005  -0.022914   0.437796
    25  H   -0.000056   0.000032   0.008825  -0.020883  -0.000048  -0.001362
    26  H    0.000034  -0.000001  -0.016179   0.000037   0.000153   0.001431
    27  H   -0.000001   0.000007  -0.003987   0.001977  -0.000551  -0.000716
    28  H   -0.000001   0.000008  -0.004080   0.001968  -0.000556  -0.000699
    29  H    0.000033  -0.000001  -0.016181   0.000029   0.000151   0.001422
    30  H   -0.000055   0.000032   0.008875  -0.020905  -0.000052  -0.001360
    31  H   -0.103712   0.010349  -0.000920  -0.001646  -0.016038   0.004817
    32  H   -0.051914   0.004705  -0.000003   0.000038  -0.000831   0.000048
    33  H    0.433816  -0.002697   0.000011   0.000186   0.004146  -0.000032
    34  H    0.029137   0.505743  -0.000002  -0.000126  -0.000023  -0.000008
    35  H    0.000894   0.329722   0.000001   0.000126  -0.000102   0.000009
    36  H    0.001066   0.330936   0.000001   0.000124  -0.000101   0.000008
              25         26         27         28         29         30
     1  O    0.000561   0.000049   0.000101   0.000100   0.000050   0.000558
     2  O    0.000001  -0.000002   0.000006   0.000006  -0.000002   0.000002
     3  C   -0.005285  -0.002755   0.003252   0.003376  -0.002844  -0.005226
     4  C    0.202643  -0.151620  -0.016687  -0.016425  -0.150012   0.202066
     5  C   -0.073024   0.044789  -0.010835  -0.011731   0.043660  -0.072181
     6  C   -0.064047  -0.001222   0.003028   0.003186  -0.001420  -0.064224
     7  C   -0.005614   0.001195   0.000411   0.000461   0.001181  -0.005615
     8  C    0.000387  -0.000352   0.000299   0.000318  -0.000362   0.000411
     9  C   -0.084937   0.023881   0.003923   0.004180   0.023841  -0.085250
    10  C    0.004202   0.006894  -0.001100  -0.001044   0.006780   0.004238
    11  C    0.017664   0.019775   0.000743   0.000775   0.019830   0.017578
    12  C    0.004342  -0.002552   0.001418   0.001431  -0.002607   0.004448
    13  C    0.009576  -0.000840  -0.000024  -0.000069  -0.000846   0.009680
    14  C    0.000434   0.000030  -0.000091  -0.000093   0.000030   0.000441
    15  C    0.357854   0.450121   0.360341   0.030961  -0.022744  -0.020702
    16  C   -0.020632  -0.022695   0.030898   0.360337   0.450169   0.357804
    17  C    0.000892   0.000100  -0.000136  -0.000137   0.000093   0.000896
    18  C    0.000098  -0.000021   0.000051   0.000051  -0.000022   0.000101
    19  C   -0.000056   0.000034  -0.000001  -0.000001   0.000033  -0.000055
    20  C    0.000032  -0.000001   0.000007   0.000008  -0.000001   0.000032
    21  H    0.008825  -0.016179  -0.003987  -0.004080  -0.016181   0.008875
    22  H   -0.020883   0.000037   0.001977   0.001968   0.000029  -0.020905
    23  H   -0.000048   0.000153  -0.000551  -0.000556   0.000151  -0.000052
    24  H   -0.001362   0.001431  -0.000716  -0.000699   0.001422  -0.001360
    25  H    0.517016  -0.039819  -0.040350  -0.002001   0.009437  -0.000950
    26  H   -0.039819   0.504288  -0.026359   0.003050  -0.026026   0.009410
    27  H   -0.040350  -0.026359   0.500183  -0.002867   0.003047  -0.002007
    28  H   -0.002001   0.003050  -0.002867   0.500183  -0.026349  -0.040383
    29  H    0.009437  -0.026026   0.003047  -0.026349   0.504535  -0.039865
    30  H   -0.000950   0.009410  -0.002007  -0.040383  -0.039865   0.517230
    31  H    0.000026  -0.000013   0.000024   0.000025  -0.000013   0.000027
    32  H   -0.000001   0.000000  -0.000000  -0.000000   0.000000  -0.000001
    33  H   -0.000003   0.000000  -0.000001  -0.000001   0.000000  -0.000003
    34  H    0.000001  -0.000000   0.000001   0.000001  -0.000000   0.000001
    35  H   -0.000014   0.000001   0.000001  -0.000001  -0.000001   0.000005
    36  H    0.000005  -0.000001  -0.000001   0.000001   0.000001  -0.000014
              31         32         33         34         35         36
     1  O    0.000509   0.000204  -0.000189   0.000052  -0.000270  -0.000274
     2  O    0.000426  -0.001088   0.000316   0.018752  -0.028659  -0.028309
     3  C   -0.010772   0.007496  -0.009043  -0.018004   0.011321   0.011128
     4  C   -0.002767  -0.000023   0.000274  -0.000021  -0.000006  -0.000002
     5  C   -0.006234   0.000285  -0.002769  -0.001600   0.000382   0.000398
     6  C    0.022795   0.010308  -0.022754   0.002726  -0.014102  -0.013937
     7  C    0.012836   0.081200  -0.056939  -0.074488   0.004215   0.004156
     8  C    0.073212  -0.024658   0.034747   0.024843   0.002853   0.003081
     9  C   -0.016842   0.002189  -0.003632  -0.008296   0.003208   0.003197
    10  C    0.010327  -0.012758   0.009628   0.003829  -0.000824  -0.000864
    11  C   -0.094487  -0.003768   0.008400   0.000535   0.000242   0.000227
    12  C   -0.013377  -0.010631   0.013199   0.025656   0.007245   0.006968
    13  C   -0.039105  -0.019787   0.003680   0.030556   0.055104   0.052930
    14  C    0.101259  -0.093525  -0.030374  -0.146425   0.009184   0.008871
    15  C   -0.000123   0.000001  -0.000017  -0.000003  -0.000005   0.000004
    16  C   -0.000122   0.000001  -0.000018  -0.000004   0.000005  -0.000006
    17  C    0.467981  -0.041923  -0.026465   0.043582  -0.002058  -0.002043
    18  C   -0.026140   0.532685  -0.076517  -0.120274  -0.027541  -0.026506
    19  C   -0.103712  -0.051914   0.433816   0.029137   0.000894   0.001066
    20  C    0.010349   0.004705  -0.002697   0.505743   0.329722   0.330936
    21  H   -0.000920  -0.000003   0.000011  -0.000002   0.000001   0.000001
    22  H   -0.001646   0.000038   0.000186  -0.000126   0.000126   0.000124
    23  H   -0.016038  -0.000831   0.004146  -0.000023  -0.000102  -0.000101
    24  H    0.004817   0.000048  -0.000032  -0.000008   0.000009   0.000008
    25  H    0.000026  -0.000001  -0.000003   0.000001  -0.000014   0.000005
    26  H   -0.000013   0.000000   0.000000  -0.000000   0.000001  -0.000001
    27  H    0.000024  -0.000000  -0.000001   0.000001   0.000001  -0.000001
    28  H    0.000025  -0.000000  -0.000001   0.000001  -0.000001   0.000001
    29  H   -0.000013   0.000000   0.000000  -0.000000  -0.000001   0.000001
    30  H    0.000027  -0.000001  -0.000003   0.000001   0.000005  -0.000014
    31  H    0.495982   0.006461  -0.021963  -0.000277   0.000459   0.000455
    32  H    0.006461   0.427142  -0.013876  -0.009697   0.001522   0.001491
    33  H   -0.021963  -0.013876   0.422973   0.003024  -0.000576  -0.000569
    34  H   -0.000277  -0.009697   0.003024   0.511744  -0.027415  -0.027232
    35  H    0.000459   0.001522  -0.000576  -0.027415   0.491989  -0.054045
    36  H    0.000455   0.001491  -0.000569  -0.027232  -0.054045   0.491532
 Mulliken charges:
               1
     1  O   -0.108479
     2  O   -0.072698
     3  C    0.702261
     4  C    0.226535
     5  C    0.687439
     6  C    1.424847
     7  C    0.841427
     8  C    1.114901
     9  C   -0.493882
    10  C   -0.523261
    11  C   -1.054125
    12  C   -1.360540
    13  C   -1.286535
    14  C    1.014712
    15  C   -0.920453
    16  C   -0.920155
    17  C   -0.561440
    18  C   -0.952627
    19  C   -0.851423
    20  C   -0.591313
    21  H    0.296325
    22  H    0.241149
    23  H    0.149096
    24  H    0.308494
    25  H    0.225029
    26  H    0.225220
    27  H    0.195999
    28  H    0.196018
    29  H    0.225007
    30  H    0.224988
    31  H    0.146580
    32  H    0.208708
    33  H    0.334037
    34  H    0.233709
    35  H    0.237130
    36  H    0.237318
 Sum of Mulliken charges =  -0.00000
 Mulliken charges with hydrogens summed into heavy atoms:
               1
     1  O   -0.108479
     2  O   -0.072698
     3  C    0.702261
     4  C    0.522860
     5  C    0.687439
     6  C    1.424847
     7  C    0.841427
     8  C    1.114901
     9  C   -0.252734
    10  C   -0.374166
    11  C   -0.745631
    12  C   -1.360540
    13  C   -1.286535
    14  C    1.014712
    15  C   -0.274205
    16  C   -0.274142
    17  C   -0.414859
    18  C   -0.743919
    19  C   -0.517386
    20  C    0.116845
 Electronic spatial extent (au):  <R**2>=           6386.5213
 Charge=             -0.0000 electrons
 Dipole moment (field-independent basis, Debye):
    X=             -0.8412    Y=             -5.8107    Z=              0.0010  Tot=              5.8713
 Quadrupole moment (field-independent basis, Debye-Ang):
   XX=            -97.5087   YY=           -125.4533   ZZ=           -121.5654
   XY=             -4.7577   XZ=             -0.0127   YZ=             -0.0031
 Traceless Quadrupole moment (field-independent basis, Debye-Ang):
   XX=             17.3337   YY=            -10.6108   ZZ=             -6.7229
   XY=             -4.7577   XZ=             -0.0127   YZ=             -0.0031
 Octapole moment (field-independent basis, Debye-Ang**2):
  XXX=             13.8991  YYY=            -68.8627  ZZZ=              0.0125  XYY=             -5.7315
  XXY=            -19.7558  XXZ=              0.0277  XZZ=             -1.1047  YZZ=             17.2358
  YYZ=              0.0075  XYZ=             -0.0219
 Hexadecapole moment (field-independent basis, Debye-Ang**3):
 XXXX=          -6238.6134 YYYY=          -1791.5094 ZZZZ=           -318.6524 XXXY=            -36.0014
 XXXZ=             -0.1233 YYYX=            -60.5257 YYYZ=             -0.0274 ZZZX=              0.0232
 ZZZY=             -0.0265 XXYY=          -1382.6059 XXZZ=          -1238.1642 YYZZ=           -353.4694
 XXYZ=             -0.0700 YYXZ=             -0.0522 ZZXY=             27.7491
 N-N= 1.447981975701D+03 E-N=-4.862288450046D+03  KE= 8.419750013903D+02
 R6APFD:  NTU= -4 IXU= 1 FactS= 1.050
 Calling FoFJK, ICntrl=      2127 FMM=F ISym2X=0 I1Cent= 0 IOpClX= 0 NMat=1 NMatS=1 NMatT=0.
 ***** Axes restored to original set *****
 -------------------------------------------------------------------
 Center     Atomic                   Forces (Hartrees/Bohr)
 Number     Number              X              Y              Z
 -------------------------------------------------------------------
      1        8           0.005944994   -0.025452374    0.000037012
      2        8          -0.009345835   -0.020571677   -0.000112043
      3        6          -0.009936815   -0.007420281   -0.000033490
      4        6          -0.023247656    0.004890590   -0.000004035
      5        6          -0.002824950    0.004106201    0.000081857
      6        6          -0.006409610    0.000751119    0.000035951
      7        6           0.009455200   -0.011646044    0.000000427
      8        6           0.001621456    0.005884994   -0.000059360
      9        6           0.010291241   -0.009113541   -0.000011239
     10        6          -0.001703852    0.000988068    0.000034935
     11        6           0.021242222    0.000815492   -0.000031059
     12        6          -0.030575462    0.029949973   -0.000152352
     13        6           0.025625954    0.025083967    0.000268318
     14        6           0.014425833   -0.002247703    0.000021282
     15        6           0.003499461   -0.002799548    0.000183033
     16        6           0.003490068   -0.002731176   -0.000242768
     17        6          -0.000961915   -0.000011270   -0.000019127
     18        6          -0.008043848   -0.011384565   -0.000001696
     19        6          -0.010848127    0.004707821    0.000001999
     20        6           0.009889439    0.004455841   -0.000018615
     21        1           0.002271658   -0.003305202   -0.000005821
     22        1           0.002962856    0.002904254   -0.000005256
     23        1           0.004543761    0.000334300   -0.000005265
     24        1          -0.002275964   -0.000172355   -0.000000926
     25        1           0.001491583    0.001628895    0.001025713
     26        1          -0.000996309    0.000334078    0.000913981
     27        1           0.000579618    0.000189434   -0.000915968
     28        1           0.000605465    0.000164664    0.000957441
     29        1          -0.000986345    0.000327463   -0.000913932
     30        1           0.001480408    0.001575187   -0.001035763
     31        1          -0.004427525    0.001247608    0.000003337
     32        1           0.001375536    0.003802314    0.000001848
     33        1          -0.000536472   -0.002087416    0.000001859
     34        1          -0.001491123   -0.006521533   -0.000000332
     35        1          -0.003091294    0.005669528    0.004219287
     36        1          -0.003093649    0.005652896   -0.004219235
 -------------------------------------------------------------------
 Cartesian Forces:  Max     0.030575462 RMS     0.008046191

 GradGradGradGradGradGradGradGradGradGradGradGradGradGradGradGradGradGrad
 Berny optimization.
 FormGI is forming the generalized inverse of G from B-inverse, IUseBI=4.
 Internal  Forces:  Max     0.025870525 RMS     0.005020421
 Search for a local minimum.
 Step number   1 out of a maximum of  208
 All quantities printed in internal units (Hartrees-Bohrs-Radians)
 Mixed Optimization -- RFO/linear search
 Second derivative matrix not updated -- first step.
 ITU=  0
     Eigenvalues ---    0.00230   0.00230   0.00816   0.00891   0.00945
     Eigenvalues ---    0.00986   0.01027   0.01450   0.01495   0.01594
     Eigenvalues ---    0.01634   0.01689   0.01758   0.01795   0.01862
     Eigenvalues ---    0.02019   0.02020   0.02064   0.02072   0.02130
     Eigenvalues ---    0.02165   0.02167   0.02189   0.02214   0.02238
     Eigenvalues ---    0.03651   0.05056   0.05349   0.05350   0.05491
     Eigenvalues ---    0.05491   0.05593   0.07131   0.07291   0.16000
     Eigenvalues ---    0.16000   0.16000   0.16000   0.16000   0.16000
     Eigenvalues ---    0.16000   0.16000   0.16000   0.16000   0.16000
     Eigenvalues ---    0.16000   0.16000   0.16000   0.16000   0.16864
     Eigenvalues ---    0.18740   0.22098   0.22434   0.23506   0.23518
     Eigenvalues ---    0.24621   0.24919   0.25000   0.25000   0.25000
     Eigenvalues ---    0.25000   0.25000   0.25000   0.25000   0.28358
     Eigenvalues ---    0.28362   0.31930   0.32777   0.33387   0.33502
     Eigenvalues ---    0.33823   0.34051   0.34072   0.34161   0.34171
     Eigenvalues ---    0.34200   0.34202   0.34206   0.34215   0.34269
     Eigenvalues ---    0.34271   0.35152   0.35165   0.35209   0.35216
     Eigenvalues ---    0.35235   0.35237   0.35256   0.39885   0.40736
     Eigenvalues ---    0.41179   0.41318   0.44120   0.44262   0.45345
     Eigenvalues ---    0.45350   0.46314   0.46332   0.47265   0.47273
     Eigenvalues ---    0.94630   0.94691
 RFO step:  Lambda=-1.47320085D-02 EMin= 2.30000000D-03
 Linear search not attempted -- first point.
 Iteration  1 RMS(Cart)=  0.06294709 RMS(Int)=  0.00112017
 Iteration  2 RMS(Cart)=  0.00189156 RMS(Int)=  0.00010316
 Iteration  3 RMS(Cart)=  0.00000084 RMS(Int)=  0.00010315
 Variable       Old X    -DE/DX   Delta X   Delta X   Delta X     New X
                                 (Linear)    (Quad)   (Total)
    R1        2.30870  -0.02575   0.00000  -0.02680  -0.02680   2.28190
    R2        2.30843  -0.02245   0.00000  -0.02334  -0.02334   2.28509
    R3        2.66156  -0.00390   0.00000  -0.01156  -0.01163   2.64993
    R4        2.80813  -0.00557   0.00000  -0.01739  -0.01740   2.79073
    R5        2.66406  -0.01106   0.00000  -0.02524  -0.02526   2.63880
    R6        2.81676   0.01178   0.00000   0.03379   0.03379   2.85055
    R7        2.91355  -0.00285   0.00000  -0.00956  -0.00956   2.90399
    R8        2.91362  -0.00288   0.00000  -0.00966  -0.00966   2.90397
    R9        2.07630   0.00207   0.00000   0.00586   0.00586   2.08216
   R10        2.62551   0.00154   0.00000   0.00406   0.00408   2.62958
   R11        2.62310   0.00744   0.00000   0.01635   0.01636   2.63946
   R12        2.65253  -0.00972   0.00000  -0.02125  -0.02124   2.63129
   R13        2.78318   0.00230   0.00000   0.00562   0.00557   2.78876
   R14        2.66150   0.00868   0.00000   0.02025   0.02041   2.68191
   R15        2.66378  -0.01402   0.00000  -0.03223  -0.03226   2.63152
   R16        2.78309   0.01027   0.00000   0.02998   0.03005   2.81314
   R17        2.65235   0.01018   0.00000   0.02400   0.02414   2.67649
   R18        2.05408   0.00144   0.00000   0.00394   0.00394   2.05802
   R19        2.64578  -0.00791   0.00000  -0.01648  -0.01649   2.62930
   R20        2.05295   0.00128   0.00000   0.00350   0.00350   2.05645
   R21        2.05428   0.00143   0.00000   0.00392   0.00392   2.05820
[...]
 0,-0.00003707,-0.00000380,-0.00000020,-0.00005637,-0.00010268,-0.03623
 781,0.00000515,-0.00000477,0.00749696,0.00001055,0.00001088,0.00386997
 ,-0.00000119,0.00000054,-0.00097510,0.00000005,0.,0.00000567,-0.000000
 04,0.00000002,0.00001899,0.00001486,0.00000041,0.00192536,0.00000007,0
 .,0.00000705,-0.00000190,0.00000283,-0.00000253,0.00000281,-0.00000347
 ,0.00000759,0.00000080,-0.00000079,-0.00000762,-0.00000080,0.00000076,
 -0.00000760,-0.00000278,0.00000350,0.00000766,0.00000187,-0.00000279,-
 0.00000249,0.00003763,0.00010689,0.02330472,-0.00027597,0.00016521,-0.
 00000060,0.00037892,0.00050102,0.00000066,-0.00003422,0.00000743,-0.00
 000037,0.00001522,0.00000275,-0.00000002,0.00000868,-0.00000535,0.0000
 0006,-0.00007763,-0.00002033,-0.00000015,0.00073012,-0.00009920,-0.000
 00115,0.00062135,0.00282383,0.00000502,0.00000575,0.00000883,0.,-0.000
 06013,-0.00009160,0.00000021,0.00000156,0.00001283,-0.00000002,0.00036
 628,0.00016975,0.00000057,-0.00066028,-0.00119690,-0.00000118,-0.01048
 176,-0.00152850,0.00000556,-0.00000774,0.00000376,0.00000580,-0.000007
 74,0.00000375,-0.00000580,0.00018852,-0.00360827,0.00000117,-0.3323886
 9,0.02886619,0.00014218,-0.01309061,0.00490052,0.00000916,0.00047235,-
 0.00198778,-0.00000228,-0.00000341,-0.00000280,0.,0.00000406,0.0000079
 1,0.,0.00002369,0.00005565,-0.00000008,-0.00000818,-0.00000485,0.,0.00
 000381,-0.00000262,0.00000080,-0.00000816,0.00000101,-0.00000206,0.000
 00349,-0.00000131,0.00000150,0.00000349,-0.00000131,-0.00000151,-0.000
 00816,0.00000102,0.00000206,0.00000381,-0.00000262,-0.00000079,-0.0007
 1115,0.00024873,0.00000051,0.35303303,0.00037982,-0.00012576,0.0000008
 8,-0.00037377,-0.00011750,0.00000012,0.00001881,0.00013703,0.00000027,
 0.00000241,0.00001218,-0.00000003,-0.00000107,0.00009217,-0.00000004,0
 .00009438,0.00003104,0.00000035,-0.00015352,-0.00155815,0.00000006,0.0
 0175136,-0.00495460,-0.00000746,-0.00010600,0.00000366,-0.00000010,-0.
 00008804,-0.00009473,0.00000033,0.00008058,0.00004034,-0.00000003,-0.0
 0041566,-0.00048209,-0.00000113,0.00170726,0.00085777,0.00000024,0.027
 34471,-0.00004722,-0.00001314,-0.00000515,-0.00000229,0.00000260,-0.00
 000515,-0.00000229,-0.00000260,-0.00296179,-0.00377374,-0.00000488,0.0
 2716194,-0.05989463,-0.00002237,-0.02619079,0.00696833,0.00001280,0.00
 283472,0.00043670,-0.00000054,0.00000070,-0.00000053,0.,-0.00001311,-0
 .00000728,0.00000002,0.00003446,0.00007596,-0.00000024,0.00000141,-0.0
 0000376,0.00000002,0.00000017,0.00000027,0.00000045,-0.00000186,0.0000
 0129,-0.00000168,0.00000110,-0.00000002,0.00000039,0.00000110,-0.00000
 002,-0.00000039,-0.00000186,0.00000129,0.00000168,0.00000018,0.0000002
 7,-0.00000045,-0.00123746,0.00010578,0.00000036,-0.02876799,0.06269363
 ,0.00000031,0.00000012,-0.00006503,-0.00000073,-0.00000080,0.00001550,
 0.00000090,0.,-0.00085685,-0.00000002,-0.00000002,0.00001291,-0.000000
 03,-0.00000039,0.00000433,-0.00000031,0.00000079,-0.00000394,-0.000002
 11,0.00000076,-0.00115919,0.00000339,-0.00000672,0.00658200,0.00000035
 ,0.00000028,0.00008691,0.00000041,-0.00000043,0.00002904,-0.00000041,0
 .00000019,-0.00009667,-0.00000046,-0.00000099,-0.00008686,0.00000133,0
 .00000113,0.00024020,0.00002221,-0.00000045,0.00381008,0.00000598,0.00
 000205,-0.00000065,-0.00000592,-0.00000206,-0.00000063,0.00000195,-0.0
 0000513,0.00737474,0.00014238,-0.00002238,-0.03690899,-0.00000864,-0.0
 0000142,0.00327812,-0.00000385,0.00000425,-0.00458031,0.00000001,0.,0.
 00000047,0.,0.,0.00000586,0.00000005,0.00000021,0.00012773,0.00000002,
 0.00000001,0.00000041,-0.00000018,0.00000050,0.00000062,0.00000088,0.0
 0000014,0.00000159,-0.00000029,-0.00000093,-0.00000126,0.00000028,0.00
 000093,-0.00000126,-0.00000085,-0.00000015,0.00000158,0.00000016,-0.00
 000050,0.00000065,-0.00000038,-0.00000032,0.00008604,-0.00015583,0.000
 03088,0.02526575,0.00003850,0.00009910,-0.00000014,0.00003906,0.000052
 83,0.00000033,0.00007329,0.00160520,0.00000090,0.00001967,0.00001044,0
 .00000002,0.00000721,-0.00003097,-0.00000002,-0.00050488,-0.00012517,-
 0.00000004,-0.00569248,-0.00009954,0.00000491,-0.00100705,-0.00099644,
 -0.00000080,-0.00000089,0.00017368,-0.00000017,0.00004896,0.00004708,-
 0.00000027,-0.00003769,-0.00002306,0.,-0.00008449,-0.00022536,0.000000
 42,-0.00003688,0.00007195,-0.00000064,-0.00145419,-0.00382508,0.000001
 76,-0.00001562,-0.00000062,0.00000939,-0.00001561,-0.00000064,-0.00000
 938,-0.00698456,0.02934220,0.00002138,0.01196684,-0.01731506,-0.000012
 61,-0.10584970,0.10345176,0.00008335,0.00047777,-0.00049096,-0.0000005
 1,-0.00000767,-0.00000476,0.,-0.00005567,0.00000248,0.,-0.00001340,-0.
 00001428,0.00000013,-0.00003072,-0.00000441,0.00000003,0.00000380,-0.0
 0000337,0.00000107,-0.00000865,0.00000320,-0.00000429,0.00000361,-0.00
 000139,0.00000108,0.00000361,-0.00000139,-0.00000109,-0.00000865,0.000
 00322,0.00000428,0.00000380,-0.00000337,-0.00000107,0.00053378,-0.0002
 2703,-0.00000182,0.00050100,0.00032694,-0.00000160,0.10823516,0.000054
 75,-0.00008636,0.00000019,0.00004234,0.00005464,-0.00000015,-0.0001903
 8,-0.00012487,0.00000033,-0.00001579,-0.00001320,0.,-0.00000696,-0.000
 06934,0.00000010,-0.00002721,0.00003801,0.,-0.00000471,0.00197360,-0.0
 0000366,-0.00109410,0.00057995,0.00000141,0.00008740,0.00002558,-0.000
 00001,0.00011228,0.00002034,-0.00000032,-0.00004664,0.00000398,0.00000
 002,-0.00001145,0.00006820,-0.00000017,0.00007933,-0.00016165,0.000000
 61,-0.00388104,-0.00248603,-0.00000408,0.00001531,0.00000165,-0.000010
 35,0.00001531,0.00000167,0.00001035,-0.00160392,0.00112091,-0.00000092
 ,0.01382689,-0.01690052,-0.00001775,0.10376685,-0.28995696,-0.00018102
 ,0.00082602,-0.00061375,0.,0.00000583,0.00000346,0.,0.00000656,-0.0000
 0103,-0.00000003,-0.00000523,-0.00002969,-0.00000006,0.00001104,0.0000
 0686,0.00000002,-0.00000350,0.00000208,-0.00000082,0.00000915,-0.00000
 309,0.00000460,-0.00000398,0.00000139,-0.00000149,-0.00000397,0.000001
 39,0.00000149,0.00000915,-0.00000309,-0.00000459,-0.00000349,0.0000020
 8,0.00000082,0.00033620,0.00072100,0.00000273,-0.00042535,0.00053717,0
 .00000266,-0.11158013,0.30567985,0.00000005,0.00000004,-0.00006237,-0.
 00000025,-0.00000111,0.00015917,0.00000014,-0.00000062,0.00001606,0.,-
 0.00000005,0.00000062,-0.00000003,-0.00000017,-0.00004000,-0.00000027,
 -0.00000002,-0.00040894,0.00000379,-0.00000143,0.00774463,0.00000031,0
 .00000115,-0.00124671,0.00000027,0.00000008,0.00001230,0.00000029,0.00
 000036,0.00002310,-0.00000009,-0.00000006,0.00002532,-0.00000025,-0.00
 000012,0.00033453,-0.00000096,0.00000117,-0.00112145,0.00000207,-0.000
 00471,0.00768680,-0.00000138,0.00000099,0.00000275,0.00000139,-0.00000
 094,0.00000279,0.00000540,-0.00001440,0.00450986,0.00000588,-0.0000033
 9,0.00497261,0.00008143,-0.00018223,-0.04059032,-0.00000052,0.00000053
 ,-0.00072751,0.,0.,-0.00000084,0.00000003,0.,0.00005050,0.00000023,-0.
 00000019,0.00000829,0.00000002,0.00000002,0.00001761,-0.00000039,0.000
 00137,-0.00000030,0.00000004,0.00000021,-0.00000081,-0.00000041,-0.000
 00066,-0.00000235,0.00000042,0.00000066,-0.00000235,-0.00000004,-0.000
 00022,-0.00000084,0.00000040,-0.00000137,-0.00000031,-0.00000147,0.000
 00334,-0.00413632,-0.00000211,0.00000231,-0.00393053,-0.00009452,0.000
 20029,0.02654530,-0.00024418,0.00010546,-0.00000030,-0.00107811,0.0004
 1912,0.00000318,-0.00004363,-0.00033828,-0.00000016,0.00002083,0.00000
 398,-0.00000001,0.00002044,-0.00000920,-0.00000003,-0.00010102,-0.0000
 0547,0.,-0.00070585,0.00109878,0.00000041,-0.00010278,-0.00381484,0.00
 000162,0.00000210,-0.00003983,0.00000010,-0.00011585,0.00005920,-0.000
 00004,-0.00002689,-0.00004013,0.00000009,0.00031296,0.00001091,-0.0000
 0059,0.00078703,0.00035615,-0.00000013,-0.02109536,0.00660809,0.000023
 18,-0.00001413,0.00000213,0.00001062,-0.00001414,0.00000212,-0.0000106
 1,0.00039485,-0.00014732,-0.00000006,0.00054718,0.00313985,-0.00000004
 ,0.00022699,-0.00036515,-0.00000175,-0.28219514,0.08369218,0.00032240,
 -0.00000711,-0.00000480,0.,0.00000714,0.00001090,-0.00000001,0.0000121
 7,-0.00001083,-0.00000001,-0.00001994,-0.00000552,0.,0.00000559,-0.000
 00361,0.00000088,-0.00001243,0.00000251,-0.00000382,0.00000540,-0.0000
 0184,0.00000236,0.00000539,-0.00000184,-0.00000236,-0.00001243,0.00000
 252,0.00000382,0.00000559,-0.00000361,-0.00000087,0.00009261,-0.000051
 53,0.00000017,0.00104648,-0.00095741,0.00000064,-0.00002643,-0.0000268
 6,0.00000010,0.30764423,0.00010802,0.00004884,-0.00000036,0.00313251,0
 .00027312,-0.00000455,-0.00010129,-0.00040463,-0.00000036,-0.00000788,
 0.00000257,-0.00000001,-0.00000531,-0.00002807,0.00000004,0.00017197,-
 0.00001081,-0.00000011,-0.00116256,0.00055116,-0.00000104,-0.00220359,
 -0.00412118,-0.00000314,0.00003202,0.00008328,-0.00000009,-0.00007248,
 0.00006672,0.00000012,-0.00003218,-0.00001939,0.00000011,-0.00009088,0
 .00011098,0.00000204,-0.00045722,-0.00206988,-0.00000055,-0.02669944,0
 .00702767,0.00003752,0.00000540,-0.00000181,-0.00000487,0.00000539,-0.
 00000181,0.00000487,-0.00002992,-0.00008344,0.00000035,-0.00285365,0.0
 0029734,0.00000213,-0.00013771,0.00023282,0.00000109,0.08943456,-0.078
 78801,-0.00012605,0.00000609,0.00000350,0.,-0.00001823,-0.00000801,0.0
 0000001,0.00000343,0.00000172,-0.00000004,-0.00000919,0.00000521,-0.00
 000003,-0.00000326,0.00000270,-0.00000023,0.00000628,-0.00000077,0.000
 00157,-0.00000274,0.00000037,-0.00000086,-0.00000274,0.00000037,0.0000
 0086,0.00000628,-0.00000077,-0.00000157,-0.00000326,0.00000271,0.00000
 022,0.00004965,-0.00001222,-0.00000022,0.00023746,-0.00096117,-0.00000
 106,0.00004698,0.00006015,-0.00000011,-0.09065711,0.08885742,-0.000000
 36,0.00000008,0.00008715,0.00000387,-0.00000351,0.00187044,-0.00000013
 ,0.,-0.00007354,-0.00000001,0.00000001,-0.00000198,-0.00000002,-0.0000
 0004,-0.00001530,0.00000021,-0.00000012,0.00008118,-0.00000085,-0.0000
 0114,0.00042767,-0.00000145,-0.00000134,0.00177516,0.00000008,0.000000
 18,0.00002416,0.,-0.00000005,-0.00004988,-0.00000001,0.00000003,0.0000
 0888,0.00000135,0.00000094,-0.00055477,-0.00000133,-0.00000150,-0.0005
 6900,-0.00001151,-0.00000097,-0.00191978,-0.00000096,0.,-0.00000008,0.
 00000098,-0.00000001,-0.00000005,-0.00000010,0.00000050,0.00000868,-0.
 00000143,-0.00000131,-0.00040919,-0.00000093,0.00000035,-0.00023875,0.
 00032923,-0.00011727,-0.04882965,0.00000001,0.,0.00000066,0.,0.,0.0000
 0397,-0.00000004,0.,-0.00000185,0.00000001,0.00000002,0.00000734,0.000
 00033,-0.00000003,0.00000022,-0.00000013,0.00000022,-0.00000026,0.0000
 0017,0.00000010,-0.00000029,-0.00000019,-0.00000010,-0.00000028,0.0000
 0017,-0.00000022,-0.00000026,-0.00000035,0.00000004,0.00000021,-0.0000
 0010,-0.00000004,0.00004918,-0.00000035,0.00000109,0.00052796,0.000000
 05,0.00000010,-0.00002045,-0.00035937,0.00014305,0.04450425,0.00012250
 ,0.00011793,0.00008910,-0.00090236,0.00312082,0.00096851,0.00012357,0.
 00000198,-0.00003717,0.00000182,0.00000532,0.00000009,0.00000467,0.000
 03576,-0.00000434,0.00013118,0.00001150,0.00010442,0.00007784,-0.00097
 588,-0.00096222,-0.00152345,0.00207048,0.00036511,-0.00003148,0.000037
 83,-0.00000541,-0.00004957,-0.00003471,0.00002323,0.00004220,-0.000005
 54,0.00000720,-0.00013939,-0.00016821,-0.00055632,-0.00151775,-0.00438
 298,0.00061594,0.00491193,-0.00990866,0.01867347,-0.00000219,-0.000002
 73,-0.00000047,-0.00000222,-0.00000107,-0.00000018,-0.00102369,0.00023
 042,0.00003684,-0.00159088,-0.00198602,-0.00077635,0.00116569,0.000265
 15,-0.00060617,-0.05163306,0.02045872,-0.03331632,0.00000216,0.0000018
 3,0.00000023,-0.00001432,-0.00000532,0.00000769,0.00002088,0.00002145,
 -0.00000296,0.00000101,0.00000043,-0.00000584,-0.00000036,0.00000155,0
 .00000111,0.00000047,0.00000060,-0.00000060,-0.00000036,-0.00000062,0.
 00000033,-0.00000019,-0.00000027,-0.00000046,0.00000034,0.00000003,0.0
 0000057,-0.00000009,0.00000093,0.00000012,0.00001764,0.00004269,0.0000
 5432,0.00020628,-0.00023101,-0.00003136,-0.00006044,-0.00013504,0.0001
 0904,-0.00268592,0.01567285,-0.02396517,0.05467973,-0.00000044,0.00000
 746,-0.00004728,0.00066834,-0.00075078,-0.00166755,0.00003525,0.000019
 33,-0.00005665,0.00000684,0.00000556,-0.00000020,-0.00000791,0.0000100
 6,0.00001425,-0.00003860,-0.00000407,-0.00008579,0.00003627,-0.0002717
 7,-0.00071551,0.00149605,-0.00011959,-0.00098249,-0.00002133,-0.000008
 00,-0.00000121,-0.00002740,-0.00001359,0.00002696,0.00000626,0.0000144
 8,0.00000157,-0.00017684,0.00000364,0.00035738,0.00004205,0.00112729,0
 .00110146,0.00265619,-0.01794514,0.01914594,-0.00000729,-0.00000029,0.
 00000498,-0.00000603,-0.00000100,-0.00000413,0.00019095,-0.00009330,0.
 00012609,-0.00279586,-0.00112712,-0.00024807,-0.00021403,-0.00093772,-
 0.00135426,0.02224354,-0.13147886,0.12960725,-0.00000197,-0.00000092,-
 0.00000028,-0.00000484,0.00000274,-0.00000234,0.00001308,0.00001395,0.
 00000324,-0.00000424,-0.00000297,-0.00000598,0.00000089,0.00000011,0.0
 0000108,-0.00000346,0.00000185,-0.00000250,0.00000124,-0.00000198,-0.0
 0000012,0.00000144,-0.00000054,-0.00000144,-0.00000356,0.00000159,0.00
 000187,0.00000113,-0.00000048,-0.00000016,-0.00002536,-0.00000227,0.00
 014885,-0.00013545,0.00001548,0.00071875,-0.00013218,-0.00022743,0.000
 07166,0.00049219,-0.00556109,0.00678742,-0.02250627,0.14753577,-0.0001
 4358,-0.00005225,0.00009241,-0.00152681,-0.00052020,0.00065948,-0.0000
 1810,0.00006826,0.00000824,0.00000281,-0.00000958,0.00000156,0.0000011
 8,-0.00000001,-0.00001233,-0.00016438,0.00000080,0.00012633,0.00014943
 ,0.00017859,-0.00008969,-0.00022824,0.00027697,0.00123762,0.00000842,-
 0.00005266,-0.00000525,-0.00000039,-0.00002101,-0.00000806,-0.00000105
 ,-0.00002184,0.00000012,0.00018124,-0.00007938,-0.00059976,0.00033401,
 0.00129607,-0.00023008,0.00125217,-0.00214293,0.00223416,0.00000125,0.
 00000396,0.00000110,0.00000037,0.00000455,-0.00000112,0.00009693,-0.00
 007519,-0.00006911,0.00007040,-0.00089356,-0.00069976,0.00006754,-0.00
 013979,-0.00029658,-0.03239164,0.12787461,-0.21422370,-0.00000376,-0.0
 0000201,0.00000044,0.00001675,0.00000889,0.00000425,-0.00000869,-0.000
 01393,0.00000002,0.00000154,-0.00000187,0.00000058,0.00000102,-0.00000
 203,0.00000020,-0.00000142,-0.00000089,0.00000036,0.00000081,-0.000000
 62,-0.00000031,0.00000074,-0.00000068,0.00000035,-0.00000142,-0.000000
 78,-0.00000011,0.00000099,-0.00000216,0.00000001,0.00000107,-0.0000067
 8,0.00003756,0.00001768,-0.00006263,0.00012052,0.00000210,-0.00002065,
 0.00008997,0.00032504,-0.00276727,0.00168492,0.03561003,-0.13791777,0.
 23155452,0.00012355,0.00011750,-0.00008884,-0.00089500,0.00311710,-0.0
 0095717,0.00012296,0.00000162,0.00003657,0.00000184,0.00000527,-0.0000
 0004,0.00000465,0.00003549,0.00000414,0.00013090,0.00001136,-0.0001034
 2,0.00007870,-0.00097290,0.00096230,-0.00152572,0.00206402,-0.00036142
 ,-0.00003127,0.00003779,0.00000519,-0.00004941,-0.00003467,-0.00002283
 ,0.00004182,-0.00000542,-0.00000725,-0.00014091,-0.00016806,0.00055465
 ,-0.00151399,-0.00437741,-0.00061958,0.00487076,-0.00987725,-0.0186979
 9,-0.00000221,-0.00000107,0.00000020,-0.00000218,-0.00000274,0.0000004
 7,-0.00102037,0.00022756,-0.00003606,-0.00158560,-0.00197634,0.0007722
 4,0.00115977,0.00026305,0.00060412,-0.05147612,0.02012062,0.03302046,0
 .00000216,0.00000183,-0.00000024,-0.00001433,-0.00000537,-0.00000769,0
 .00002090,0.00002151,0.00000289,0.00000099,0.00000044,0.00000583,-0.00
 000008,0.00000093,-0.00000013,0.00000033,0.00000004,-0.00000057,-0.000
 00020,-0.00000026,0.00000048,-0.00000037,-0.00000062,-0.00000033,0.000
 00046,0.00000060,0.00000060,-0.00000036,0.00000156,-0.00000112,0.00001
 765,0.00004266,-0.00005421,0.00020592,-0.00023041,0.00003171,-0.000060
 37,-0.00013466,-0.00010861,-0.00263563,0.01563178,0.02400834,-0.000332
 19,-0.00177868,-0.00365406,0.05450297,-0.00000171,0.00000766,0.0000469
 3,0.00066597,-0.00075113,0.00166704,0.00003543,0.00001951,0.00005680,0
 .00000687,0.00000554,0.00000022,-0.00000783,0.00001014,-0.00001439,-0.
 00003882,-0.00000420,0.00008568,0.00003617,-0.00027627,0.00071587,0.00
 149380,-0.00011724,0.00097731,-0.00002130,-0.00000809,0.00000136,-0.00
 002772,-0.00001369,-0.00002685,0.00000637,0.00001434,-0.00000158,-0.00
 017346,0.00000457,-0.00035702,0.00004062,0.00112427,-0.00110052,0.0026
 1156,-0.01790619,-0.01919021,-0.00000603,-0.00000098,0.00000414,-0.000
 00729,-0.00000029,-0.00000500,0.00018806,-0.00009137,-0.00012598,-0.00
 279109,-0.00112876,0.00025537,-0.00021088,-0.00093623,0.00135516,0.021
 90591,-0.13096784,-0.12950812,-0.00000198,-0.00000093,0.00000028,-0.00
 000476,0.00000277,0.00000237,0.00001307,0.00001391,-0.00000331,-0.0000
 0425,-0.00000297,0.00000599,0.00000113,-0.00000049,0.00000016,-0.00000
 358,0.00000158,-0.00000187,0.00000145,-0.00000054,0.00000144,0.0000012
 5,-0.00000197,0.00000012,-0.00000347,0.00000185,0.00000249,0.00000090,
 0.00000010,-0.00000108,-0.00002539,-0.00000206,-0.00014903,-0.00013545
 ,0.00001546,-0.00071989,-0.00013184,-0.00022696,-0.00007241,0.00047909
 ,-0.00555560,-0.00680650,-0.00175393,0.00978961,0.01509577,-0.02213686
 ,0.14698251,0.00014196,0.00005227,0.00009260,0.00153329,0.00051129,0.0
 0066298,0.00001792,-0.00006815,0.00000856,-0.00000282,0.00000958,0.000
 00154,-0.00000121,-0.00000015,-0.00001237,0.00016408,-0.00000085,0.000
 12628,-0.00014976,-0.00017624,-0.00009071,0.00023283,-0.00028175,0.001
 23822,-0.00000818,0.00005262,-0.00000528,0.00000049,0.00002104,-0.0000
 0807,0.00000093,0.00002188,0.00000007,-0.00017756,0.00008148,-0.000598
 54,-0.00033202,-0.00128925,-0.00023457,-0.00125566,0.00211962,0.002245
 59,-0.00000036,-0.00000454,-0.00000111,-0.00000125,-0.00000395,0.00000
 111,-0.00009266,0.00007436,-0.00006911,-0.00007263,0.00089785,-0.00070
 038,-0.00007289,0.00013573,-0.00029563,0.03210313,-0.12776143,-0.21490
 713,0.00000375,0.00000201,0.00000043,-0.00001669,-0.00000884,0.0000042
 6,0.00000864,0.00001388,0.,-0.00000155,0.00000187,0.00000057,-0.000000
 99,0.00000215,0.,0.00000142,0.00000077,-0.00000011,-0.00000073,0.00000
 068,0.00000035,-0.00000082,0.00000061,-0.00000031,0.00000142,0.0000008
 9,0.00000036,-0.00000102,0.00000203,0.00000019,-0.00000112,0.00000658,
 0.00003748,-0.00001865,0.00006286,0.00011916,-0.00000222,0.00002033,0.
 00009019,-0.00031442,0.00271854,0.00162331,0.00360396,-0.01502502,-0.0
 2161887,-0.03528860,0.13780925,0.23228895\\-0.00001417,-0.00000515,-0.
 00000288,0.00001208,0.00001546,-0.00001227,0.00000213,-0.00001823,-0.0
 0000153,0.00001243,-0.00000118,0.00000059,0.00000857,-0.00002830,0.000
 00029,-0.00001461,0.00001786,-0.00000239,0.00000489,-0.00000613,0.0000
 0060,0.00001437,-0.00000263,-0.00000748,0.00002052,0.00001909,-0.00000
 119,0.00002135,0.00001163,-0.00000059,-0.00003734,0.00001821,-0.000000
 44,0.00000297,-0.00001397,0.00000743,-0.00001097,-0.00001718,0.0000183
 0,-0.00003297,0.00002038,0.00000039,-0.00000265,-0.00000459,0.00000006
 ,-0.00000260,-0.00000417,-0.00000069,-0.00000248,0.00000537,0.00000182
 ,0.00000862,-0.00001595,0.00000015,0.00000998,-0.00000365,-0.00000024,
 0.00001124,-0.00000431,0.00000146,-0.00000452,-0.00000115,0.00000041,-
 0.00000371,-0.00000193,0.00000018,-0.00000867,0.00000375,-0.00000184,0
 .00000491,-0.00000148,-0.00000033,-0.00000077,0.00000094,-0.00000076,0
 .00000244,-0.00000136,-0.00000061,-0.00000086,-0.00000211,0.00000013,-
 0.00000091,-0.00000196,-0.00000026,0.00000252,-0.00000127,0.00000046,-
 0.00000108,0.00000102,0.00000085,0.00001085,0.00000300,0.00000150,-0.0
 0000291,0.00000300,0.00000012,-0.00000310,0.00000216,0.00000012,-0.000
 00788,0.00000791,-0.00000041,0.00000090,0.00000385,-0.00000477,0.00000
 146,0.00000307,0.00000379\\\@


 LAWS OF PROGRAMMING DEFINITION:  A WORKING PROGRAM
                                  IS ONE THAT HAS
                                  ONLY UNOBSERVED
                                  BUGS.
 Job cpu time:       0 days 16 hours 20 minutes 42.2 seconds.
 Elapsed time:       0 days  1 hours  1 minutes 32.7 seconds.
 File lengths (MBytes):  RWF=    932 Int=      0 D2E=      0 Chk=     26 Scr=      1
 Normal termination of Gaussian 16 at Sun Sep 21 15:26:47 2025.
