 Entering Gaussian System, Link 0=g16
 Input=RFIE0155.gjf
 Output=RFIE0155.log
 Initial command:
 /usr/local/g16/l1.exe "/dados_01/scratch/Gau-2211820.inp" -scrdir="/dados_01/scratch/"
 Entering Link 1 = /usr/local/g16/l1.exe PID=   2211821.
  
 Copyright (c) 1988-2017, Gaussian, Inc.  All Rights Reserved.
  
 This is part of the Gaussian(R) 16 program.  It is based on
 the Gaussian(R) 09 system (copyright 2009, Gaussian, Inc.),
 the Gaussian(R) 03 system (copyright 2003, Gaussian, Inc.),
 the Gaussian(R) 98 system (copyright 1998, Gaussian, Inc.),
 the Gaussian(R) 94 system (copyright 1995, Gaussian, Inc.),
 the Gaussian 92(TM) system (copyright 1992, Gaussian, Inc.),
 the Gaussian 90(TM) system (copyright 1990, Gaussian, Inc.),
 the Gaussian 88(TM) system (copyright 1988, Gaussian, Inc.),
 the Gaussian 86(TM) system (copyright 1986, Carnegie Mellon
 University), and the Gaussian 82(TM) system (copyright 1983,
 Carnegie Mellon University). Gaussian is a federally registered
 trademark of Gaussian, Inc.
  
 This software contains proprietary and confidential information,
 including trade secrets, belonging to Gaussian, Inc.
  
 This software is provided under written license and may be
 used, copied, transmitted, or stored only in accord with that
 written license.
  
 The following legend is applicable only to US Government
 contracts under FAR:
  
                    RESTRICTED RIGHTS LEGEND
  
 Use, reproduction and disclosure by the US Government is
 subject to restrictions as set forth in subparagraphs (a)
 and (c) of the Commercial Computer Software - Restricted
 Rights clause in FAR 52.227-19.
  
 Gaussian, Inc.
 340 Quinnipiac St., Bldg. 40, Wallingford CT 06492
  
  
 ---------------------------------------------------------------
 Warning -- This program may not be used in any manner that
 competes with the business of Gaussian, Inc. or will provide
 assistance to any competitor of Gaussian, Inc.  The licensee
 of this program is prohibited from giving any competitor of
 Gaussian, Inc. access to this program.  By using this program,
 the user acknowledges that Gaussian, Inc. is engaged in the
 business of creating and licensing software in the field of
 computational chemistry and represents and warrants to the
 licensee that it is not a competitor of Gaussian, Inc. and that
 it will not use this program in any manner prohibited above.
 ---------------------------------------------------------------
  

 Cite this work as:
 Gaussian 16, Revision B.01,
 M. J. Frisch, G. W. Trucks, H. B. Schlegel, G. E. Scuseria, 
 M. A. Robb, J. R. Cheeseman, G. Scalmani, V. Barone, 
 G. A. Petersson, H. Nakatsuji, X. Li, M. Caricato, A. V. Marenich, 
 J. Bloino, B. G. Janesko, R. Gomperts, B. Mennucci, H. P. Hratchian, 
 J. V. Ortiz, A. F. Izmaylov, J. L. Sonnenberg, D. Williams-Young, 
 F. Ding, F. Lipparini, F. Egidi, J. Goings, B. Peng, A. Petrone, 
 T. Henderson, D. Ranasinghe, V. G. Zakrzewski, J. Gao, N. Rega, 
 G. Zheng, W. Liang, M. Hada, M. Ehara, K. Toyota, R. Fukuda, 
 J. Hasegawa, M. Ishida, T. Nakajima, Y. Honda, O. Kitao, H. Nakai, 
 T. Vreven, K. Throssell, J. A. Montgomery, Jr., J. E. Peralta, 
 F. Ogliaro, M. J. Bearpark, J. J. Heyd, E. N. Brothers, K. N. Kudin, 
 V. N. Staroverov, T. A. Keith, R. Kobayashi, J. Normand, 
 K. Raghavachari, A. P. Rendell, J. C. Burant, S. S. Iyengar, 
 J. Tomasi, M. Cossi, J. M. Millam, M. Klene, C. Adamo, R. Cammi, 
 J. W. Ochterski, R. L. Martin, K. Morokuma, O. Farkas, 
 J. B. Foresman, and D. J. Fox, Gaussian, Inc., Wallingford CT, 2016.
 
 ******************************************
 Gaussian 16:  ES64L-G16RevB.01 20-Dec-2017
                21-Sep-2025 
 ******************************************
 %nprocs=16
 Will use up to   16 processors via shared memory.
 %mem=40GB
 %chk=RFIE0155.chk
 ----------------------------------------------------------------------
 # opt freq=noraman M08HX/6-311++G** scf=xqc Empiricaldispersion=pfd In
 t(Grid=ultraFine)
 ----------------------------------------------------------------------
 1/18=20,19=15,26=4,38=1/1,3;
 2/9=110,12=2,17=6,18=5,40=1/2;
 3/5=4,6=6,7=1111,11=2,25=1,30=1,71=1,74=-74,75=-5,124=11/1,2,3;
 4//1;
 5/5=2,8=3,13=1,38=5/2,8;
 6/7=2,8=2,9=2,10=2,28=1/1;
 7//1,2,3,16;
 1/18=20,19=15,26=4/3(2);
 2/9=110/2;
 99//99;
 2/9=110/2;
 3/5=4,6=6,7=1111,11=2,25=1,30=1,71=1,74=-74,75=-5,124=11/1,2,3;
 4/5=5,16=3,69=1/1;
 5/5=2,8=3,13=1,38=5/2,8;
 7//1,2,3,16;
 1/18=20,19=15,26=4/3(-5);
 2/9=110/2;
 6/7=2,8=2,9=2,10=2,19=2,28=1/1;
 99/9=1/99;
 --------
 RFIE0155
 --------
 Symbolic Z-matrix:
 Charge =  0 Multiplicity = 1
 O                    -2.8577   -1.1004    0.0069 
 O                    -3.0627    1.2206   -0.4137 
 O                    -0.7193   -0.1993   -0.4787 
 O                     1.9291    0.4606    0.0157 
 O                    -3.8382    0.0452    2.2497 
 O                    -6.1963    1.8516    0.2376 
 O                     3.9172    0.903     1.2211 
 O                    -2.3117   -3.2967   -1.6523 
 O                     0.217    -4.2195   -0.5895 
 O                     1.1138   -2.6145    1.6177 
 O                    -5.3373   -1.5096   -1.1776 
 O                     2.6241    2.3354   -1.8983 
 O                     5.1564    1.2514   -2.7282 
 O                    -1.8862    3.6897    0.0885 
 O                     6.3969    1.151    -0.2483 
 O                     4.8428   -1.434     2.7525 
 C                    -3.7577   -0.0125   -0.1769 
 C                    -4.6121    0.2364    1.0662 
 C                    -4.9756    1.7055    0.9561 
 C                    -1.78     -1.0462   -0.9259 
 C                    -3.8386    2.3097    0.1271 
 C                    -1.2424   -2.4328   -1.2837 
 C                    -0.0511   -0.695     0.687 
 C                    -0.467    -3.0539   -0.1236 
 C                     0.5735   -2.0704    0.4159 
 C                    -4.5842   -0.3341   -1.4222 
 C                     0.9974    0.344     1.0751 
 C                     2.9449    1.4192    0.3081 
 C                     3.619     1.8848   -0.985 
 C                    -2.9036    3.1916    0.9415 
 C                     4.4352    0.7511   -1.6059 
 C                     5.407     0.172    -0.5738 
 C                     4.6544   -0.2165    0.7055 
 C                     5.5927   -0.6874    1.8114 
 H                    -5.4765   -0.4316    1.1283 
 H                    -5.1013    2.1963    1.9268 
 H                    -2.1021   -0.6138   -1.8761 
 H                    -4.2154    2.8787   -0.7313 
 H                    -0.5714   -2.3528   -2.1488 
 H                    -0.7708   -0.7594    1.5133 
 H                    -1.1469   -3.391     0.6674 
 H                     1.3974   -1.9916   -0.3032 
 H                    -3.9959   -0.495    -2.3279 
 H                    -5.2777    0.4771   -1.6651 
 H                     0.506     1.3126    1.2283 
 H                     1.5065    0.0507    2. 
 H                     2.48      2.2957    0.777 
 H                     4.2784    2.7376   -0.7836 
 H                    -2.4182    2.6176    1.7376 
 H                    -3.4427    4.0373    1.3793 
 H                     3.7623   -0.0301   -1.9799 
 H                     5.9394   -0.6867   -0.9962 
 H                     3.941    -1.0203    0.4814 
 H                    -4.4107    0.2505    3.0084 
 H                    -6.3746    2.8043    0.1568 
 H                    -2.7888   -2.8753   -2.3873 
 H                     0.8192   -3.9525   -1.3047 
 H                     0.3972   -2.6654    2.2731 
 H                     6.0582    0.1545    2.3341 
 H                     6.3706   -1.3456    1.4119 
 H                    -5.8685   -1.6817   -1.9737 
 H                     2.1275    3.0493   -1.4631 
 H                     5.6784    0.5157   -3.0914 
 H                    -1.301     4.243     0.6335 
 H                     5.9819    1.8356    0.3027 
 H                     5.4602   -1.7272    3.4443 
 

 GradGradGradGradGradGradGradGradGradGradGradGradGradGradGradGradGradGrad
 Berny optimization.
 Initialization pass.
                           ----------------------------
                           !    Initial Parameters    !
                           ! (Angstroms and Degrees)  !
 --------------------------                            --------------------------
 ! Name  Definition              Value          Derivative Info.                !
 --------------------------------------------------------------------------------
 ! R1    R(1,17)                 1.4238         estimate D2E/DX2                !
 ! R2    R(1,20)                 1.4264         estimate D2E/DX2                !
 ! R3    R(2,17)                 1.4351         estimate D2E/DX2                !
 ! R4    R(2,21)                 1.4424         estimate D2E/DX2                !
 ! R5    R(3,20)                 1.4291         estimate D2E/DX2                !
 ! R6    R(3,23)                 1.4322         estimate D2E/DX2                !
 ! R7    R(4,27)                 1.4156         estimate D2E/DX2                !
 ! R8    R(4,28)                 1.427          estimate D2E/DX2                !
 ! R9    R(5,18)                 1.4269         estimate D2E/DX2                !
 ! R10   R(5,54)                 0.9724         estimate D2E/DX2                !
 ! R11   R(6,19)                 1.424          estimate D2E/DX2                !
 ! R12   R(6,55)                 0.9726         estimate D2E/DX2                !
 ! R13   R(7,28)                 1.4302         estimate D2E/DX2                !
 ! R14   R(7,33)                 1.4362         estimate D2E/DX2                !
 ! R15   R(8,22)                 1.4232         estimate D2E/DX2                !
 ! R16   R(8,56)                 0.9723         estimate D2E/DX2                !
 ! R17   R(9,24)                 1.4295         estimate D2E/DX2                !
 ! R18   R(9,57)                 0.9723         estimate D2E/DX2                !
 ! R19   R(10,25)                1.4256         estimate D2E/DX2                !
 ! R20   R(10,58)                0.9724         estimate D2E/DX2                !
 ! R21   R(11,26)                1.4173         estimate D2E/DX2                !
 ! R22   R(11,61)                0.9724         estimate D2E/DX2                !
 ! R23   R(12,29)                1.4237         estimate D2E/DX2                !
 ! R24   R(12,62)                0.9725         estimate D2E/DX2                !
 ! R25   R(13,31)                1.4248         estimate D2E/DX2                !
 ! R26   R(13,63)                0.9724         estimate D2E/DX2                !
 ! R27   R(14,30)                1.418          estimate D2E/DX2                !
 ! R28   R(14,64)                0.9724         estimate D2E/DX2                !
 ! R29   R(15,32)                1.4298         estimate D2E/DX2                !
 ! R30   R(15,65)                0.9719         estimate D2E/DX2                !
 ! R31   R(16,34)                1.4161         estimate D2E/DX2                !
 ! R32   R(16,66)                0.9725         estimate D2E/DX2                !
 ! R33   R(17,18)                1.5288         estimate D2E/DX2                !
 ! R34   R(17,26)                1.5288         estimate D2E/DX2                !
 ! R35   R(18,19)                1.5174         estimate D2E/DX2                !
 ! R36   R(18,35)                1.0942         estimate D2E/DX2                !
 ! R37   R(19,21)                1.5314         estimate D2E/DX2                !
 ! R38   R(19,36)                1.095          estimate D2E/DX2                !
 ! R39   R(20,22)                1.5296         estimate D2E/DX2                !
 ! R40   R(20,37)                1.0925         estimate D2E/DX2                !
 ! R41   R(21,30)                1.5216         estimate D2E/DX2                !
 ! R42   R(21,38)                1.0966         estimate D2E/DX2                !
 ! R43   R(22,24)                1.5274         estimate D2E/DX2                !
 ! R44   R(22,39)                1.0977         estimate D2E/DX2                !
 ! R45   R(23,25)                1.5347         estimate D2E/DX2                !
 ! R46   R(23,27)                1.5263         estimate D2E/DX2                !
 ! R47   R(23,40)                1.0977         estimate D2E/DX2                !
 ! R48   R(24,25)                1.53           estimate D2E/DX2                !
 ! R49   R(24,41)                1.0962         estimate D2E/DX2                !
 ! R50   R(25,42)                1.0964         estimate D2E/DX2                !
 ! R51   R(26,43)                1.0919         estimate D2E/DX2                !
 ! R52   R(26,44)                1.0945         estimate D2E/DX2                !
 ! R53   R(27,45)                1.0969         estimate D2E/DX2                !
 ! R54   R(27,46)                1.0957         estimate D2E/DX2                !
 ! R55   R(28,29)                1.5308         estimate D2E/DX2                !
 ! R56   R(28,47)                1.0974         estimate D2E/DX2                !
 ! R57   R(29,31)                1.5287         estimate D2E/DX2                !
 ! R58   R(29,48)                1.0966         estimate D2E/DX2                !
 ! R59   R(30,49)                1.0949         estimate D2E/DX2                !
 ! R60   R(30,50)                1.0943         estimate D2E/DX2                !
 ! R61   R(31,32)                1.5313         estimate D2E/DX2                !
 ! R62   R(31,51)                1.0968         estimate D2E/DX2                !
 ! R63   R(32,33)                1.5343         estimate D2E/DX2                !
 ! R64   R(32,52)                1.0951         estimate D2E/DX2                !
 ! R65   R(33,34)                1.5249         estimate D2E/DX2                !
 ! R66   R(33,53)                1.0978         estimate D2E/DX2                !
 ! R67   R(34,59)                1.0949         estimate D2E/DX2                !
 ! R68   R(34,60)                1.0945         estimate D2E/DX2                !
 ! A1    A(17,1,20)            111.3543         estimate D2E/DX2                !
 ! A2    A(17,2,21)            109.0497         estimate D2E/DX2                !
 ! A3    A(20,3,23)            113.3212         estimate D2E/DX2                !
 ! A4    A(27,4,28)            111.7462         estimate D2E/DX2                !
 ! A5    A(18,5,54)            107.4295         estimate D2E/DX2                !
 ! A6    A(19,6,55)            107.4319         estimate D2E/DX2                !
 ! A7    A(28,7,33)            113.6492         estimate D2E/DX2                !
 ! A8    A(22,8,56)            107.5392         estimate D2E/DX2                !
 ! A9    A(24,9,57)            108.1896         estimate D2E/DX2                !
 ! A10   A(25,10,58)           107.9906         estimate D2E/DX2                !
 ! A11   A(26,11,61)           107.2034         estimate D2E/DX2                !
 ! A12   A(29,12,62)           107.5848         estimate D2E/DX2                !
 ! A13   A(31,13,63)           107.4732         estimate D2E/DX2                !
 ! A14   A(30,14,64)           107.1275         estimate D2E/DX2                !
 ! A15   A(32,15,65)           108.4068         estimate D2E/DX2                !
 ! A16   A(34,16,66)           107.1881         estimate D2E/DX2                !
 ! A17   A(1,17,2)             111.8199         estimate D2E/DX2                !
 ! A18   A(1,17,18)            111.8815         estimate D2E/DX2                !
 ! A19   A(1,17,26)            106.627          estimate D2E/DX2                !
 ! A20   A(2,17,18)            105.3624         estimate D2E/DX2                !
 ! A21   A(2,17,26)            107.9475         estimate D2E/DX2                !
 ! A22   A(18,17,26)           113.2311         estimate D2E/DX2                !
 ! A23   A(5,18,17)            110.4556         estimate D2E/DX2                !
 ! A24   A(5,18,19)            108.6526         estimate D2E/DX2                !
 ! A25   A(5,18,35)            107.4321         estimate D2E/DX2                !
 ! A26   A(17,18,19)           103.4446         estimate D2E/DX2                !
 ! A27   A(17,18,35)           112.8458         estimate D2E/DX2                !
 ! A28   A(19,18,35)           113.9496         estimate D2E/DX2                !
 ! A29   A(6,19,18)            109.9563         estimate D2E/DX2                !
 ! A30   A(6,19,21)            108.8358         estimate D2E/DX2                !
 ! A31   A(6,19,36)            107.6326         estimate D2E/DX2                !
 ! A32   A(18,19,21)           104.0877         estimate D2E/DX2                !
 ! A33   A(18,19,36)           113.3997         estimate D2E/DX2                !
 ! A34   A(21,19,36)           112.8486         estimate D2E/DX2                !
 ! A35   A(1,20,3)             112.251          estimate D2E/DX2                !
 ! A36   A(1,20,22)            112.5867         estimate D2E/DX2                !
 ! A37   A(1,20,37)            111.1656         estimate D2E/DX2                !
 ! A38   A(3,20,22)            110.4595         estimate D2E/DX2                !
 ! A39   A(3,20,37)            104.8589         estimate D2E/DX2                !
 ! A40   A(22,20,37)           105.008          estimate D2E/DX2                !
 ! A41   A(2,21,19)            107.7248         estimate D2E/DX2                !
 ! A42   A(2,21,30)            107.9235         estimate D2E/DX2                !
 ! A43   A(2,21,38)            106.4462         estimate D2E/DX2                !
 ! A44   A(19,21,30)           113.277          estimate D2E/DX2                !
 ! A45   A(19,21,38)           111.9225         estimate D2E/DX2                !
 ! A46   A(30,21,38)           109.2305         estimate D2E/DX2                !
 ! A47   A(8,22,20)            110.2899         estimate D2E/DX2                !
 ! A48   A(8,22,24)            109.3477         estimate D2E/DX2                !
 ! A49   A(8,22,39)            107.4204         estimate D2E/DX2                !
 ! A50   A(20,22,24)           111.6779         estimate D2E/DX2                !
 ! A51   A(20,22,39)           109.4578         estimate D2E/DX2                !
 ! A52   A(24,22,39)           108.5356         estimate D2E/DX2                !
 ! A53   A(3,23,25)            110.873          estimate D2E/DX2                !
 ! A54   A(3,23,27)            106.9699         estimate D2E/DX2                !
 ! A55   A(3,23,40)            109.0938         estimate D2E/DX2                !
 ! A56   A(25,23,27)           112.0498         estimate D2E/DX2                !
 ! A57   A(25,23,40)           110.3184         estimate D2E/DX2                !
 ! A58   A(27,23,40)           107.394          estimate D2E/DX2                !
 ! A59   A(9,24,22)            109.083          estimate D2E/DX2                !
 ! A60   A(9,24,25)            108.2794         estimate D2E/DX2                !
 ! A61   A(9,24,41)            106.3324         estimate D2E/DX2                !
 ! A62   A(22,24,25)           110.5897         estimate D2E/DX2                !
 ! A63   A(22,24,41)           110.9934         estimate D2E/DX2                !
 ! A64   A(25,24,41)           111.41           estimate D2E/DX2                !
 ! A65   A(10,25,23)           110.3271         estimate D2E/DX2                !
 ! A66   A(10,25,24)           108.0389         estimate D2E/DX2                !
 ! A67   A(10,25,42)           107.1898         estimate D2E/DX2                !
 ! A68   A(23,25,24)           111.1979         estimate D2E/DX2                !
 ! A69   A(23,25,42)           110.9327         estimate D2E/DX2                !
 ! A70   A(24,25,42)           109.0238         estimate D2E/DX2                !
 ! A71   A(11,26,17)           108.7325         estimate D2E/DX2                !
 ! A72   A(11,26,43)           107.8916         estimate D2E/DX2                !
 ! A73   A(11,26,44)           108.4405         estimate D2E/DX2                !
 ! A74   A(17,26,43)           114.5422         estimate D2E/DX2                !
 ! A75   A(17,26,44)           111.5552         estimate D2E/DX2                !
 ! A76   A(43,26,44)           105.4567         estimate D2E/DX2                !
 ! A77   A(4,27,23)            108.5365         estimate D2E/DX2                !
 ! A78   A(4,27,45)            109.0652         estimate D2E/DX2                !
 ! A79   A(4,27,46)            110.3614         estimate D2E/DX2                !
 ! A80   A(23,27,45)           109.2013         estimate D2E/DX2                !
 ! A81   A(23,27,46)           110.5849         estimate D2E/DX2                !
 ! A82   A(45,27,46)           109.0641         estimate D2E/DX2                !
 ! A83   A(4,28,7)             111.8574         estimate D2E/DX2                !
 ! A84   A(4,28,29)            110.1638         estimate D2E/DX2                !
 ! A85   A(4,28,47)            108.8164         estimate D2E/DX2                !
 ! A86   A(7,28,29)            110.4668         estimate D2E/DX2                !
 ! A87   A(7,28,47)            107.6694         estimate D2E/DX2                !
 ! A88   A(29,28,47)           107.732          estimate D2E/DX2                !
 ! A89   A(12,29,28)           109.2944         estimate D2E/DX2                !
 ! A90   A(12,29,31)           110.3202         estimate D2E/DX2                !
 ! A91   A(12,29,48)           106.97           estimate D2E/DX2                !
 ! A92   A(28,29,31)           110.6491         estimate D2E/DX2                !
 ! A93   A(28,29,48)           110.2535         estimate D2E/DX2                !
 ! A94   A(31,29,48)           109.2844         estimate D2E/DX2                !
 ! A95   A(14,30,21)           108.8146         estimate D2E/DX2                !
 ! A96   A(14,30,49)           107.6645         estimate D2E/DX2                !
 ! A97   A(14,30,50)           108.8234         estimate D2E/DX2                !
 ! A98   A(21,30,49)           110.9607         estimate D2E/DX2                !
 ! A99   A(21,30,50)           111.0589         estimate D2E/DX2                !
 ! A100  A(49,30,50)           109.4298         estimate D2E/DX2                !
 ! A101  A(13,31,29)           109.2555         estimate D2E/DX2                !
 ! A102  A(13,31,32)           110.027          estimate D2E/DX2                !
 ! A103  A(13,31,51)           106.9811         estimate D2E/DX2                !
 ! A104  A(29,31,32)           110.2142         estimate D2E/DX2                !
 ! A105  A(29,31,51)           109.825          estimate D2E/DX2                !
 ! A106  A(32,31,51)           110.4762         estimate D2E/DX2                !
 ! A107  A(15,32,31)           109.5036         estimate D2E/DX2                !
 ! A108  A(15,32,33)           108.8548         estimate D2E/DX2                !
 ! A109  A(15,32,52)           106.7458         estimate D2E/DX2                !
 ! A110  A(31,32,33)           110.2703         estimate D2E/DX2                !
 ! A111  A(31,32,52)           110.1872         estimate D2E/DX2                !
 ! A112  A(33,32,52)           111.1952         estimate D2E/DX2                !
 ! A113  A(7,33,32)            110.7176         estimate D2E/DX2                !
 ! A114  A(7,33,34)            107.2301         estimate D2E/DX2                !
 ! A115  A(7,33,53)            108.0863         estimate D2E/DX2                !
 ! A116  A(32,33,34)           112.401          estimate D2E/DX2                !
 ! A117  A(32,33,53)           109.5085         estimate D2E/DX2                !
 ! A118  A(34,33,53)           108.7718         estimate D2E/DX2                !
 ! A119  A(16,34,33)           108.5985         estimate D2E/DX2                !
 ! A120  A(16,34,59)           108.2571         estimate D2E/DX2                !
 ! A121  A(16,34,60)           107.5705         estimate D2E/DX2                !
 ! A122  A(33,34,59)           111.7405         estimate D2E/DX2                !
 ! A123  A(33,34,60)           110.9977         estimate D2E/DX2                !
 ! A124  A(59,34,60)           109.5423         estimate D2E/DX2                !
 ! D1    D(20,1,17,2)          -42.0734         estimate D2E/DX2                !
 ! D2    D(20,1,17,18)        -159.9988         estimate D2E/DX2                !
 ! D3    D(20,1,17,26)          75.6997         estimate D2E/DX2                !
 ! D4    D(17,1,20,3)           84.5993         estimate D2E/DX2                !
 ! D5    D(17,1,20,22)        -150.0039         estimate D2E/DX2                !
 ! D6    D(17,1,20,37)         -32.4993         estimate D2E/DX2                !
 ! D7    D(21,2,17,1)         -148.3741         estimate D2E/DX2                !
 ! D8    D(21,2,17,18)         -26.6167         estimate D2E/DX2                !
 ! D9    D(21,2,17,26)          94.6465         estimate D2E/DX2                !
 ! D10   D(17,2,21,19)           9.789          estimate D2E/DX2                !
 ! D11   D(17,2,21,30)         132.4325         estimate D2E/DX2                !
 ! D12   D(17,2,21,38)        -110.4115         estimate D2E/DX2                !
 ! D13   D(23,3,20,1)           66.2104         estimate D2E/DX2                !
 ! D14   D(23,3,20,22)         -60.3423         estimate D2E/DX2                !
 ! D15   D(23,3,20,37)        -172.9819         estimate D2E/DX2                !
 ! D16   D(20,3,23,25)          60.2819         estimate D2E/DX2                !
 ! D17   D(20,3,23,27)        -177.2769         estimate D2E/DX2                !
 ! D18   D(20,3,23,40)         -61.4038         estimate D2E/DX2                !
 ! D19   D(28,4,27,23)         179.9992         estimate D2E/DX2                !
 ! D20   D(28,4,27,45)          61.1244         estimate D2E/DX2                !
 ! D21   D(28,4,27,46)         -58.6691         estimate D2E/DX2                !
 ! D22   D(27,4,28,7)           76.7243         estimate D2E/DX2                !
 ! D23   D(27,4,28,29)        -160.0015         estimate D2E/DX2                !
 ! D24   D(27,4,28,47)         -42.1038         estimate D2E/DX2                !
 ! D25   D(54,5,18,17)         177.637          estimate D2E/DX2                !
 ! D26   D(54,5,18,19)          64.818          estimate D2E/DX2                !
 ! D27   D(54,5,18,35)         -58.8964         estimate D2E/DX2                !
 ! D28   D(55,6,19,18)        -177.6872         estimate D2E/DX2                !
 ! D29   D(55,6,19,21)         -64.2669         estimate D2E/DX2                !
 ! D30   D(55,6,19,36)          58.3431         estimate D2E/DX2                !
 ! D31   D(33,7,28,4)           63.3638         estimate D2E/DX2                !
 ! D32   D(33,7,28,29)         -59.7389         estimate D2E/DX2                !
 ! D33   D(33,7,28,47)        -177.1307         estimate D2E/DX2                !
 ! D34   D(28,7,33,32)          59.7122         estimate D2E/DX2                !
 ! D35   D(28,7,33,34)        -177.3401         estimate D2E/DX2                !
 ! D36   D(28,7,33,53)         -60.2292         estimate D2E/DX2                !
 ! D37   D(56,8,22,20)          56.5471         estimate D2E/DX2                !
 ! D38   D(56,8,22,24)         179.7232         estimate D2E/DX2                !
 ! D39   D(56,8,22,39)         -62.677          estimate D2E/DX2                !
 ! D40   D(57,9,24,22)          59.3291         estimate D2E/DX2                !
 ! D41   D(57,9,24,25)         -61.08           estimate D2E/DX2                !
 ! D42   D(57,9,24,41)         179.0919         estimate D2E/DX2                !
 ! D43   D(58,10,25,23)         57.4895         estimate D2E/DX2                !
 ! D44   D(58,10,25,24)        -64.2583         estimate D2E/DX2                !
 ! D45   D(58,10,25,42)        178.381          estimate D2E/DX2                !
 ! D46   D(61,11,26,17)        178.7209         estimate D2E/DX2                !
 ! D47   D(61,11,26,43)        -56.5038         estimate D2E/DX2                !
 ! D48   D(61,11,26,44)         57.253          estimate D2E/DX2                !
 ! D49   D(62,12,29,28)         57.7991         estimate D2E/DX2                !
 ! D50   D(62,12,29,31)        179.6739         estimate D2E/DX2                !
 ! D51   D(62,12,29,48)        -61.5615         estimate D2E/DX2                !
 ! D52   D(63,13,31,29)        178.9013         estimate D2E/DX2                !
 ! D53   D(63,13,31,32)         57.7773         estimate D2E/DX2                !
 ! D54   D(63,13,31,51)        -62.2633         estimate D2E/DX2                !
 ! D55   D(64,14,30,21)       -179.6059         estimate D2E/DX2                !
 ! D56   D(64,14,30,49)        -59.2663         estimate D2E/DX2                !
 ! D57   D(64,14,30,50)         59.2492         estimate D2E/DX2                !
 ! D58   D(65,15,32,31)         73.0546         estimate D2E/DX2                !
 ! D59   D(65,15,32,33)        -47.5648         estimate D2E/DX2                !
 ! D60   D(65,15,32,52)       -167.6785         estimate D2E/DX2                !
 ! D61   D(66,16,34,33)        179.72           estimate D2E/DX2                !
 ! D62   D(66,16,34,59)        -58.7774         estimate D2E/DX2                !
 ! D63   D(66,16,34,60)         59.5124         estimate D2E/DX2                !
 ! D64   D(1,17,18,5)           38.2796         estimate D2E/DX2                !
 ! D65   D(1,17,18,19)         154.3925         estimate D2E/DX2                !
 ! D66   D(1,17,18,35)         -81.9921         estimate D2E/DX2                !
 ! D67   D(2,17,18,5)          -83.4378         estimate D2E/DX2                !
 ! D68   D(2,17,18,19)          32.6751         estimate D2E/DX2                !
 ! D69   D(2,17,18,35)         156.2905         estimate D2E/DX2                !
 ! D70   D(26,17,18,5)         158.8074         estimate D2E/DX2                !
 ! D71   D(26,17,18,19)        -85.0797         estimate D2E/DX2                !
 ! D72   D(26,17,18,35)         38.5357         estimate D2E/DX2                !
 ! D73   D(1,17,26,11)          62.9971         estimate D2E/DX2                !
 ! D74   D(1,17,26,43)         -57.7642         estimate D2E/DX2                !
 ! D75   D(1,17,26,44)        -177.4592         estimate D2E/DX2                !
 ! D76   D(2,17,26,11)        -176.7062         estimate D2E/DX2                !
 ! D77   D(2,17,26,43)          62.5324         estimate D2E/DX2                !
 ! D78   D(2,17,26,44)         -57.1625         estimate D2E/DX2                !
 ! D79   D(18,17,26,11)        -60.4696         estimate D2E/DX2                !
 ! D80   D(18,17,26,43)        178.769          estimate D2E/DX2                !
 ! D81   D(18,17,26,44)         59.0741         estimate D2E/DX2                !
 ! D82   D(5,18,19,6)         -152.2304         estimate D2E/DX2                !
 ! D83   D(5,18,19,21)          91.3299         estimate D2E/DX2                !
 ! D84   D(5,18,19,36)         -31.6817         estimate D2E/DX2                !
 ! D85   D(17,18,19,6)          90.3861         estimate D2E/DX2                !
 ! D86   D(17,18,19,21)        -26.0536         estimate D2E/DX2                !
 ! D87   D(17,18,19,36)       -149.0653         estimate D2E/DX2                !
 ! D88   D(35,18,19,6)         -32.5008         estimate D2E/DX2                !
 ! D89   D(35,18,19,21)       -148.9405         estimate D2E/DX2                !
 ! D90   D(35,18,19,36)         88.0478         estimate D2E/DX2                !
 ! D91   D(6,19,21,2)         -106.1739         estimate D2E/DX2                !
 ! D92   D(6,19,21,30)         134.5375         estimate D2E/DX2                !
 ! D93   D(6,19,21,38)          10.507          estimate D2E/DX2                !
 ! D94   D(18,19,21,2)          11.0458         estimate D2E/DX2                !
 ! D95   D(18,19,21,30)       -108.2428         estimate D2E/DX2                !
 ! D96   D(18,19,21,38)        127.7267         estimate D2E/DX2                !
 ! D97   D(36,19,21,2)         134.4171         estimate D2E/DX2                !
 ! D98   D(36,19,21,30)         15.1286         estimate D2E/DX2                !
 ! D99   D(36,19,21,38)       -108.9019         estimate D2E/DX2                !
 ! D100  D(1,20,22,8)           50.1821         estimate D2E/DX2                !
 ! D101  D(1,20,22,24)         -71.625          estimate D2E/DX2                !
 ! D102  D(1,20,22,39)         168.1603         estimate D2E/DX2                !
 ! D103  D(3,20,22,8)          176.5473         estimate D2E/DX2                !
 ! D104  D(3,20,22,24)          54.7402         estimate D2E/DX2                !
 ! D105  D(3,20,22,39)         -65.4745         estimate D2E/DX2                !
 ! D106  D(37,20,22,8)         -70.9087         estimate D2E/DX2                !
 ! D107  D(37,20,22,24)        167.2842         estimate D2E/DX2                !
 ! D108  D(37,20,22,39)         47.0695         estimate D2E/DX2                !
 ! D109  D(2,21,30,14)          60.3532         estimate D2E/DX2                !
 ! D110  D(2,21,30,49)         -57.9285         estimate D2E/DX2                !
 ! D111  D(2,21,30,50)        -179.8813         estimate D2E/DX2                !
 ! D112  D(19,21,30,14)        179.5276         estimate D2E/DX2                !
 ! D113  D(19,21,30,49)         61.2459         estimate D2E/DX2                !
 ! D114  D(19,21,30,50)        -60.7069         estimate D2E/DX2                !
 ! D115  D(38,21,30,14)        -54.9854         estimate D2E/DX2                !
 ! D116  D(38,21,30,49)       -173.2672         estimate D2E/DX2                !
 ! D117  D(38,21,30,50)         64.78           estimate D2E/DX2                !
 ! D118  D(8,22,24,9)           68.4058         estimate D2E/DX2                !
 ! D119  D(8,22,24,25)        -172.6145         estimate D2E/DX2                !
 ! D120  D(8,22,24,41)         -48.4322         estimate D2E/DX2                !
 ! D121  D(20,22,24,9)        -169.2453         estimate D2E/DX2                !
 ! D122  D(20,22,24,25)        -50.2657         estimate D2E/DX2                !
 ! D123  D(20,22,24,41)         73.9166         estimate D2E/DX2                !
 ! D124  D(39,22,24,9)         -48.4913         estimate D2E/DX2                !
 ! D125  D(39,22,24,25)         70.4883         estimate D2E/DX2                !
 ! D126  D(39,22,24,41)       -165.3293         estimate D2E/DX2                !
 ! D127  D(3,23,25,10)        -173.973          estimate D2E/DX2                !
 ! D128  D(3,23,25,24)         -54.1141         estimate D2E/DX2                !
 ! D129  D(3,23,25,42)          67.3978         estimate D2E/DX2                !
 ! D130  D(27,23,25,10)         66.5897         estimate D2E/DX2                !
 ! D131  D(27,23,25,24)       -173.5513         estimate D2E/DX2                !
 ! D132  D(27,23,25,42)        -52.0395         estimate D2E/DX2                !
 ! D133  D(40,23,25,10)        -53.0081         estimate D2E/DX2                !
 ! D134  D(40,23,25,24)         66.8509         estimate D2E/DX2                !
 ! D135  D(40,23,25,42)       -171.6373         estimate D2E/DX2                !
 ! D136  D(3,23,27,4)          -62.1705         estimate D2E/DX2                !
 ! D137  D(3,23,27,45)          56.6186         estimate D2E/DX2                !
 ! D138  D(3,23,27,46)         176.6354         estimate D2E/DX2                !
 ! D139  D(25,23,27,4)          59.5324         estimate D2E/DX2                !
 ! D140  D(25,23,27,45)        178.3214         estimate D2E/DX2                !
 ! D141  D(25,23,27,46)        -61.6617         estimate D2E/DX2                !
 ! D142  D(40,23,27,4)        -179.1705         estimate D2E/DX2                !
 ! D143  D(40,23,27,45)        -60.3815         estimate D2E/DX2                !
 ! D144  D(40,23,27,46)         59.6353         estimate D2E/DX2                !
 ! D145  D(9,24,25,10)         -69.5859         estimate D2E/DX2                !
 ! D146  D(9,24,25,23)         169.2055         estimate D2E/DX2                !
 ! D147  D(9,24,25,42)          46.5858         estimate D2E/DX2                !
 ! D148  D(22,24,25,10)        170.9488         estimate D2E/DX2                !
 ! D149  D(22,24,25,23)         49.7401         estimate D2E/DX2                !
 ! D150  D(22,24,25,42)        -72.8795         estimate D2E/DX2                !
 ! D151  D(41,24,25,10)         47.0054         estimate D2E/DX2                !
 ! D152  D(41,24,25,23)        -74.2033         estimate D2E/DX2                !
 ! D153  D(41,24,25,42)        163.1771         estimate D2E/DX2                !
 ! D154  D(4,28,29,12)          53.2442         estimate D2E/DX2                !
 ! D155  D(4,28,29,31)         -68.4323         estimate D2E/DX2                !
 ! D156  D(4,28,29,48)         170.5538         estimate D2E/DX2                !
 ! D157  D(7,28,29,12)         177.3263         estimate D2E/DX2                !
 ! D158  D(7,28,29,31)          55.6498         estimate D2E/DX2                !
 ! D159  D(7,28,29,48)         -65.3642         estimate D2E/DX2                !
 ! D160  D(47,28,29,12)        -65.3205         estimate D2E/DX2                !
 ! D161  D(47,28,29,31)        173.003          estimate D2E/DX2                !
 ! D162  D(47,28,29,48)         51.989          estimate D2E/DX2                !
 ! D163  D(12,29,31,13)         64.7792         estimate D2E/DX2                !
 ! D164  D(12,29,31,32)       -174.2107         estimate D2E/DX2                !
 ! D165  D(12,29,31,51)        -52.2722         estimate D2E/DX2                !
 ! D166  D(28,29,31,13)       -174.1502         estimate D2E/DX2                !
 ! D167  D(28,29,31,32)        -53.1401         estimate D2E/DX2                !
 ! D168  D(28,29,31,51)         68.7984         estimate D2E/DX2                !
 ! D169  D(48,29,31,13)        -52.5634         estimate D2E/DX2                !
 ! D170  D(48,29,31,32)         68.4467         estimate D2E/DX2                !
 ! D171  D(48,29,31,51)       -169.6148         estimate D2E/DX2                !
 ! D172  D(13,31,32,15)         53.5717         estimate D2E/DX2                !
 ! D173  D(13,31,32,33)        173.3263         estimate D2E/DX2                !
 ! D174  D(13,31,32,52)        -63.5511         estimate D2E/DX2                !
 ! D175  D(29,31,32,15)        -66.9762         estimate D2E/DX2                !
 ! D176  D(29,31,32,33)         52.7785         estimate D2E/DX2                !
 ! D177  D(29,31,32,52)        175.9011         estimate D2E/DX2                !
 ! D178  D(51,31,32,15)        171.4715         estimate D2E/DX2                !
 ! D179  D(51,31,32,33)        -68.7738         estimate D2E/DX2                !
 ! D180  D(51,31,32,52)         54.3488         estimate D2E/DX2                !
 ! D181  D(15,32,33,7)          64.9763         estimate D2E/DX2                !
 ! D182  D(15,32,33,34)        -54.9202         estimate D2E/DX2                !
 ! D183  D(15,32,33,53)       -175.9375         estimate D2E/DX2                !
 ! D184  D(31,32,33,7)         -55.17           estimate D2E/DX2                !
 ! D185  D(31,32,33,34)       -175.0666         estimate D2E/DX2                !
 ! D186  D(31,32,33,53)         63.9161         estimate D2E/DX2                !
 ! D187  D(52,32,33,7)        -177.7025         estimate D2E/DX2                !
 ! D188  D(52,32,33,34)         62.4009         estimate D2E/DX2                !
 ! D189  D(52,32,33,53)        -58.6163         estimate D2E/DX2                !
 ! D190  D(7,33,34,16)          77.6309         estimate D2E/DX2                !
 ! D191  D(7,33,34,59)         -41.7125         estimate D2E/DX2                !
 ! D192  D(7,33,34,60)        -164.3136         estimate D2E/DX2                !
 ! D193  D(32,33,34,16)       -160.4686         estimate D2E/DX2                !
 ! D194  D(32,33,34,59)         80.188          estimate D2E/DX2                !
 ! D195  D(32,33,34,60)        -42.413          estimate D2E/DX2                !
 ! D196  D(53,33,34,16)        -39.0296         estimate D2E/DX2                !
 ! D197  D(53,33,34,59)       -158.3729         estimate D2E/DX2                !
 ! D198  D(53,33,34,60)         79.026          estimate D2E/DX2                !
 --------------------------------------------------------------------------------
 Trust Radius=3.00D-01 FncErr=1.00D-07 GrdErr=1.00D-06 EigMax=2.50D+02 EigMin=1.00D-04
 Number of steps in this run=    396 maximum allowed number of steps=    396.
 GradGradGradGradGradGradGradGradGradGradGradGradGradGradGradGradGradGrad

 Stoichiometry    C18H32O16
 Framework group  C1[X(C18H32O16)]
 Deg. of freedom   192
 Full point group                 C1      NOp   1
 Largest Abelian subgroup         C1      NOp   1
 Largest concise Abelian subgroup C1      NOp   1
                         Standard orientation:                         
 ---------------------------------------------------------------------
 Center     Atomic      Atomic             Coordinates (Angstroms)
 Number     Number       Type             X           Y           Z
 ---------------------------------------------------------------------
      1          8           0        2.857016    1.124556    0.032349
      2          8           0        3.076486   -1.189214   -0.419619
      3          8           0        0.725966    0.219197   -0.477057
      4          8           0       -1.921429   -0.461399   -0.005877
      5          8           0        3.831929   -0.047253    2.264016
      6          8           0        6.209965   -1.812909    0.239253
      7          8           0       -3.913381   -0.931043    1.182740
      8          8           0        2.308000    3.341031   -1.598790
      9          8           0       -0.231029    4.235610   -0.536488
     10          8           0       -1.130747    2.595145    1.643280
     11          8           0        5.340522    1.563278   -1.133251
     12          8           0       -2.596555   -2.312772   -1.949564
     13          8           0       -5.130225   -1.230481   -2.777512
     14          8           0        1.910493   -3.671227    0.041772
     15          8           0       -6.384080   -1.171357   -0.303007
     16          8           0       -4.859275    1.379380    2.741818
     17          6           0        3.763707    0.044057   -0.161928
     18          6           0        4.612957   -0.217788    1.082042
     19          6           0        4.984800   -1.683280    0.953299
     20          6           0        1.784469    1.077816   -0.906773
     21          6           0        3.855330   -2.281724    0.109954
     22          6           0        1.241394    2.466471   -1.247948
     23          6           0        0.049115    0.695000    0.691939
     24          6           0        0.456711    3.067179   -0.083361
     25          6           0       -0.581348    2.070786    0.436839
     26          6           0        4.594938    0.387407   -1.398240
     27          6           0       -0.995865   -0.354804    1.059936
     28          6           0       -2.933639   -1.429299    0.267729
     29          6           0       -3.598550   -1.880230   -1.035290
     30          6           0        2.920804   -3.179833    0.907000
     31          6           0       -4.417514   -0.742212   -1.644541
     32          6           0       -5.397706   -0.182730   -0.609560
     33          6           0       -4.653817    0.191713    0.678993
     34          6           0       -5.600320    0.642147    1.786428
     35          1           0        5.473473    0.453781    1.158032
     36          1           0        5.108063   -2.186985    1.917680
     37          1           0        2.113778    0.660476   -1.861226
     38          1           0        4.239584   -2.836651   -0.754334
     39          1           0        0.575322    2.395110   -2.117600
     40          1           0        0.764169    0.751562    1.522832
     41          1           0        1.130705    3.396697    0.715845
     42          1           0       -1.401080    1.997777   -0.287616
     43          1           0        4.010497    0.557919   -2.304680
     44          1           0        5.293975   -0.416673   -1.648823
     45          1           0       -0.500142   -1.322878    1.202143
     46          1           0       -1.511300   -0.077170    1.986162
     47          1           0       -2.466541   -2.309849    0.726751
     48          1           0       -4.254459   -2.739204   -0.849318
     49          1           0        2.428249   -2.619600    1.708494
     50          1           0        3.462099   -4.028763    1.335747
     51          1           0       -3.746831    0.047662   -2.004025
     52          1           0       -5.932450    0.679017   -1.022691
     53          1           0       -3.943533    1.002293    0.469923
     54          1           0        4.401567   -0.260182    3.022768
     55          1           0        6.393726   -2.763437    0.146062
     56          1           0        2.791130    2.932480   -2.337098
     57          1           0       -0.828090    3.975526   -1.258512
     58          1           0       -0.417834    2.640590    2.303088
     59          1           0       -6.064058   -0.209423    2.294836
     60          1           0       -6.379614    1.301813    1.392096
     61          1           0        5.874923    1.749300   -1.924060
     62          1           0       -2.098444   -3.030102   -1.521795
     63          1           0       -5.654224   -0.492496   -3.133117
     64          1           0        1.325415   -4.235167    0.575888
     65          1           0       -5.968322   -1.861442    0.240530
     66          1           0       -5.481798    1.659618    3.434399
 ---------------------------------------------------------------------
 Rotational constants (GHZ):           0.1911542           0.0648690           0.0575766
 Standard basis: 6-311++G(d,p) (5D, 7F)
 There are  1006 symmetry adapted cartesian basis functions of A   symmetry.
 There are   972 symmetry adapted basis functions of A   symmetry.
   972 basis functions,  1512 primitive gaussians,  1006 cartesian basis functions
   134 alpha electrons      134 beta electrons
       nuclear repulsion energy      4288.4262054868 Hartrees.
 NAtoms=   66 NActive=   66 NUniq=   66 SFac= 1.00D+00 NAtFMM=   60 NAOKFM=T Big=T
 Integral buffers will be    131072 words long.
 Raffenetti 2 integral format.
 Two-electron integral symmetry is turned on.
 R6APFD:  NTU= -4 IXU= 1 FactS= 1.050
 Nuclear repulsion after empirical dispersion term =     4288.3385538767 Hartrees.
 One-electron integrals computed using PRISM.
 NBasis=   972 RedAO= T EigKep=  1.10D-06  NBF=   972
 NBsUse=   972 1.00D-06 EigRej= -1.00D+00 NBFU=   972
 ExpMin= 3.60D-02 ExpMax= 8.59D+03 ExpMxC= 1.30D+03 IAcc=3 IRadAn=         5 AccDes= 0.00D+00
 Harris functional with IExCor= 1009 and IRadAn=       5 diagonalized for initial guess.
 HarFok:  IExCor= 1009 AccDes= 0.00D+00 IRadAn=         5 IDoV= 1 UseB2=F ITyADJ=14
 ICtDFT=  3500011 ScaDFX=  1.000000  1.000000  1.000000  1.000000
 FoFCou: FMM=F IPFlag=           0 FMFlag=      100000 FMFlg1=        2001
         NFxFlg=           0 DoJE=T BraDBF=F KetDBF=T FulRan=T
         wScrn=  0.000000 ICntrl=       500 IOpCl=  0 I1Cent=   200000004 NGrid=           0
         NMat0=    1 NMatS0=      1 NMatT0=    0 NMatD0=    1 NMtDS0=    0 NMtDT0=    0
 Petite list used in FoFCou.
 Requested convergence on RMS density matrix=1.00D-08 within  32 cycles.
 Requested convergence on MAX density matrix=1.00D-06.
 Requested convergence on             energy=1.00D-06.
 No special actions if energy rises.
 SCF Done:  E(RM08HX) =  -1908.64816072     A.U. after   15 cycles
            NFock= 15  Conv=0.20D-08     -V/T= 2.0040
 QCSCF skips out because SCF is already converged.

 **********************************************************************

            Population analysis using the SCF Density.

 **********************************************************************

 Orbital symmetries:
       Occupied  (A) (A) (A) (A) (A) (A) (A) (A) (A) (A) (A) (A)
                 (A) (A) (A) (A) (A) (A) (A) (A) (A) (A) (A) (A)
                 (A) (A) (A) (A) (A) (A) (A) (A) (A) (A) (A) (A)
                 (A) (A) (A) (A) (A) (A) (A) (A) (A) (A) (A) (A)
                 (A) (A) (A) (A) (A) (A) (A) (A) (A) (A) (A) (A)
                 (A) (A) (A) (A) (A) (A) (A) (A) (A) (A) (A) (A)
                 (A) (A) (A) (A) (A) (A) (A) (A) (A) (A) (A) (A)
                 (A) (A) (A) (A) (A) (A) (A) (A) (A) (A) (A) (A)
                 (A) (A) (A) (A) (A) (A) (A) (A) (A) (A) (A) (A)
                 (A) (A) (A) (A) (A) (A) (A) (A) (A) (A) (A) (A)
                 (A) (A) (A) (A) (A) (A) (A) (A) (A) (A) (A) (A)
                 (A) (A)
       Virtual   (A) (A) (A) (A) (A) (A) (A) (A) (A) (A) (A) (A)
                 (A) (A) (A) (A) (A) (A) (A) (A) (A) (A) (A) (A)
                 (A) (A) (A) (A) (A) (A) (A) (A) (A) (A) (A) (A)
                 (A) (A) (A) (A) (A) (A) (A) (A) (A) (A) (A) (A)
                 (A) (A) (A) (A) (A) (A) (A) (A) (A) (A) (A) (A)
                 (A) (A) (A) (A) (A) (A) (A) (A) (A) (A) (A) (A)
                 (A) (A) (A) (A) (A) (A) (A) (A) (A) (A) (A) (A)
                 (A) (A) (A) (A) (A) (A) (A) (A) (A) (A) (A) (A)
                 (A) (A) (A) (A) (A) (A) (A) (A) (A) (A) (A) (A)
                 (A) (A) (A) (A) (A) (A) (A) (A) (A) (A) (A) (A)
                 (A) (A) (A) (A) (A) (A) (A) (A) (A) (A) (A) (A)
                 (A) (A) (A) (A) (A) (A) (A) (A) (A) (A) (A) (A)
                 (A) (A) (A) (A) (A) (A) (A) (A) (A) (A) (A) (A)
                 (A) (A) (A) (A) (A) (A) (A) (A) (A) (A) (A) (A)
                 (A) (A) (A) (A) (A) (A) (A) (A) (A) (A) (A) (A)
                 (A) (A) (A) (A) (A) (A) (A) (A) (A) (A) (A) (A)
                 (A) (A) (A) (A) (A) (A) (A) (A) (A) (A) (A) (A)
                 (A) (A) (A) (A) (A) (A) (A) (A) (A) (A) (A) (A)
                 (A) (A) (A) (A) (A) (A) (A) (A) (A) (A) (A) (A)
                 (A) (A) (A) (A) (A) (A) (A) (A) (A) (A) (A) (A)
                 (A) (A) (A) (A) (A) (A) (A) (A) (A) (A) (A) (A)
                 (A) (A) (A) (A) (A) (A) (A) (A) (A) (A) (A) (A)
                 (A) (A) (A) (A) (A) (A) (A) (A) (A) (A) (A) (A)
                 (A) (A) (A) (A) (A) (A) (A) (A) (A) (A) (A) (A)
                 (A) (A) (A) (A) (A) (A) (A) (A) (A) (A) (A) (A)
                 (A) (A) (A) (A) (A) (A) (A) (A) (A) (A) (A) (A)
                 (A) (A) (A) (A) (A) (A) (A) (A) (A) (A) (A) (A)
                 (A) (A) (A) (A) (A) (A) (A) (A) (A) (A) (A) (A)
                 (A) (A) (A) (A) (A) (A) (A) (A) (A) (A) (A) (A)
                 (A) (A) (A) (A) (A) (A) (A) (A) (A) (A) (A) (A)
                 (A) (A) (A) (A) (A) (A) (A) (A) (A) (A) (A) (A)
                 (A) (A) (A) (A) (A) (A) (A) (A) (A) (A) (A) (A)
                 (A) (A) (A) (A) (A) (A) (A) (A) (A) (A) (A) (A)
                 (A) (A) (A) (A) (A) (A) (A) (A) (A) (A) (A) (A)
                 (A) (A) (A) (A) (A) (A) (A) (A) (A) (A) (A) (A)
                 (A) (A) (A) (A) (A) (A) (A) (A) (A) (A) (A) (A)
                 (A) (A) (A) (A) (A) (A) (A) (A) (A) (A) (A) (A)
                 (A) (A) (A) (A) (A) (A) (A) (A) (A) (A) (A) (A)
                 (A) (A) (A) (A) (A) (A) (A) (A) (A) (A) (A) (A)
                 (A) (A) (A) (A) (A) (A) (A) (A) (A) (A) (A) (A)
                 (A) (A) (A) (A) (A) (A) (A) (A) (A) (A) (A) (A)
                 (A) (A) (A) (A) (A) (A) (A) (A) (A) (A) (A) (A)
                 (A) (A) (A) (A) (A) (A) (A) (A) (A) (A) (A) (A)
                 (A) (A) (A) (A) (A) (A) (A) (A) (A) (A) (A) (A)
                 (A) (A) (A) (A) (A) (A) (A) (A) (A) (A) (A) (A)
                 (A) (A) (A) (A) (A) (A) (A) (A) (A) (A) (A) (A)
                 (A) (A) (A) (A) (A) (A) (A) (A) (A) (A) (A) (A)
                 (A) (A) (A) (A) (A) (A) (A) (A) (A) (A) (A) (A)
                 (A) (A) (A) (A) (A) (A) (A) (A) (A) (A) (A) (A)
                 (A) (A) (A) (A) (A) (A) (A) (A) (A) (A) (A) (A)
                 (A) (A) (A) (A) (A) (A) (A) (A) (A) (A) (A) (A)
                 (A) (A) (A) (A) (A) (A) (A) (A) (A) (A) (A) (A)
                 (A) (A) (A) (A) (A) (A) (A) (A) (A) (A) (A) (A)
                 (A) (A) (A) (A) (A) (A) (A) (A) (A) (A) (A) (A)
                 (A) (A) (A) (A) (A) (A) (A) (A) (A) (A) (A) (A)
                 (A) (A) (A) (A) (A) (A) (A) (A) (A) (A) (A) (A)
                 (A) (A) (A) (A) (A) (A) (A) (A) (A) (A) (A) (A)
                 (A) (A) (A) (A) (A) (A) (A) (A) (A) (A) (A) (A)
                 (A) (A) (A) (A) (A) (A) (A) (A) (A) (A) (A) (A)
                 (A) (A) (A) (A) (A) (A) (A) (A) (A) (A) (A) (A)
                 (A) (A) (A) (A) (A) (A) (A) (A) (A) (A) (A) (A)
                 (A) (A) (A) (A) (A) (A) (A) (A) (A) (A) (A) (A)
                 (A) (A) (A) (A) (A) (A) (A) (A) (A) (A) (A) (A)
                 (A) (A) (A) (A) (A) (A) (A) (A) (A) (A) (A) (A)
                 (A) (A) (A) (A) (A) (A) (A) (A) (A) (A) (A) (A)
                 (A) (A) (A) (A) (A) (A) (A) (A) (A) (A) (A) (A)
                 (A) (A) (A) (A) (A) (A) (A) (A) (A) (A) (A) (A)
                 (A) (A) (A) (A) (A) (A) (A) (A) (A) (A) (A) (A)
                 (A) (A) (A) (A) (A) (A) (A) (A) (A) (A) (A) (A)
                 (A) (A) (A) (A) (A) (A) (A) (A) (A) (A)
 The electronic state is 1-A.
 Alpha  occ. eigenvalues --  -19.63761 -19.63307 -19.63252 -19.63030 -19.62775
 Alpha  occ. eigenvalues --  -19.62385 -19.62121 -19.61832 -19.61451 -19.61046
 Alpha  occ. eigenvalues --  -19.60943 -19.60916 -19.60542 -19.60517 -19.60446
 Alpha  occ. eigenvalues --  -19.59847 -10.65978 -10.64547 -10.63709 -10.61308
 Alpha  occ. eigenvalues --  -10.60557 -10.60417 -10.59373 -10.59339 -10.59244
 Alpha  occ. eigenvalues --  -10.59179 -10.58798 -10.58754 -10.58632 -10.58494
 Alpha  occ. eigenvalues --  -10.58126 -10.58001 -10.57858 -10.57686  -1.22357
 Alpha  occ. eigenvalues --   -1.20652  -1.18516  -1.16727  -1.16003  -1.15910
 Alpha  occ. eigenvalues --   -1.15591  -1.15111  -1.15092  -1.14700  -1.14266
 Alpha  occ. eigenvalues --   -1.13998  -1.13050  -1.12538  -1.12100  -1.12007
 Alpha  occ. eigenvalues --   -0.90412  -0.90056  -0.89329  -0.89141  -0.87645
 Alpha  occ. eigenvalues --   -0.86536  -0.81361  -0.80152  -0.78274  -0.76458
 Alpha  occ. eigenvalues --   -0.75087  -0.73882  -0.71637  -0.70919  -0.70052
 Alpha  occ. eigenvalues --   -0.69551  -0.66689  -0.65597  -0.64301  -0.63307
 Alpha  occ. eigenvalues --   -0.62543  -0.61881  -0.61428  -0.60994  -0.60843
 Alpha  occ. eigenvalues --   -0.60447  -0.60306  -0.59695  -0.59591  -0.58847
 Alpha  occ. eigenvalues --   -0.58298  -0.56748  -0.56504  -0.56051  -0.55356
 Alpha  occ. eigenvalues --   -0.54836  -0.54184  -0.53520  -0.53408  -0.52775
 Alpha  occ. eigenvalues --   -0.52447  -0.52267  -0.51509  -0.51146  -0.50663
 Alpha  occ. eigenvalues --   -0.50255  -0.49525  -0.49398  -0.48279  -0.47902
 Alpha  occ. eigenvalues --   -0.47281  -0.46691  -0.46537  -0.45880  -0.45553
 Alpha  occ. eigenvalues --   -0.45038  -0.44636  -0.44204  -0.43601  -0.43181
 Alpha  occ. eigenvalues --   -0.42909  -0.42530  -0.41996  -0.41843  -0.40872
 Alpha  occ. eigenvalues --   -0.40795  -0.39251  -0.38622  -0.38419  -0.37818
 Alpha  occ. eigenvalues --   -0.37392  -0.37059  -0.36711  -0.36487  -0.36325
 Alpha  occ. eigenvalues --   -0.36150  -0.35537  -0.35391  -0.35295  -0.35006
 Alpha  occ. eigenvalues --   -0.34855  -0.33391  -0.32966  -0.32131
 Alpha virt. eigenvalues --   -0.04994  -0.04244  -0.03936  -0.03300  -0.03082
 Alpha virt. eigenvalues --   -0.02559  -0.01908  -0.01512  -0.01192  -0.00901
 Alpha virt. eigenvalues --   -0.00683  -0.00201   0.00082   0.00588   0.00675
 Alpha virt. eigenvalues --    0.01541   0.01679   0.02082   0.02301   0.02729
 Alpha virt. eigenvalues --    0.02796   0.03262   0.03763   0.03863   0.04518
 Alpha virt. eigenvalues --    0.04753   0.04957   0.05406   0.05497   0.05815
 Alpha virt. eigenvalues --    0.05917   0.06114   0.06560   0.06891   0.07488
 Alpha virt. eigenvalues --    0.07591   0.07809   0.08133   0.08204   0.08576
 Alpha virt. eigenvalues --    0.08713   0.09039   0.09164   0.09223   0.09321
 Alpha virt. eigenvalues --    0.09713   0.10016   0.10084   0.10385   0.10492
 Alpha virt. eigenvalues --    0.10588   0.10942   0.11166   0.11211   0.11401
 Alpha virt. eigenvalues --    0.11597   0.11884   0.12002   0.12142   0.12444
 Alpha virt. eigenvalues --    0.12528   0.12734   0.12943   0.13186   0.13316
 Alpha virt. eigenvalues --    0.13566   0.13697   0.14151   0.14231   0.14487
 Alpha virt. eigenvalues --    0.14556   0.14636   0.14931   0.15079   0.15223
 Alpha virt. eigenvalues --    0.15613   0.15717   0.15935   0.16054   0.16274
 Alpha virt. eigenvalues --    0.16723   0.16901   0.17095   0.17288   0.17437
 Alpha virt. eigenvalues --    0.17583   0.17766   0.17879   0.18302   0.18401
 Alpha virt. eigenvalues --    0.18779   0.18983   0.19256   0.19306   0.19567
 Alpha virt. eigenvalues --    0.19752   0.19806   0.20086   0.20260   0.20548
 Alpha virt. eigenvalues --    0.20877   0.21163   0.21467   0.21654   0.21796
 Alpha virt. eigenvalues --    0.22010   0.22234   0.22476   0.22572   0.22944
 Alpha virt. eigenvalues --    0.23147   0.23302   0.23419   0.23917   0.24068
 Alpha virt. eigenvalues --    0.24330   0.24781   0.24855   0.24901   0.25048
 Alpha virt. eigenvalues --    0.25353   0.25586   0.25969   0.26232   0.26366
 Alpha virt. eigenvalues --    0.26677   0.26760   0.26983   0.27466   0.27617
 Alpha virt. eigenvalues --    0.27894   0.27983   0.28323   0.28455   0.28688
 Alpha virt. eigenvalues --    0.28845   0.29017   0.29135   0.29250   0.29424
 Alpha virt. eigenvalues --    0.29540   0.29769   0.30198   0.30641   0.30821
 Alpha virt. eigenvalues --    0.30896   0.31323   0.31412   0.31557   0.31925
 Alpha virt. eigenvalues --    0.32048   0.32152   0.32318   0.32605   0.32903
 Alpha virt. eigenvalues --    0.33033   0.33355   0.33594   0.33651   0.33816
 Alpha virt. eigenvalues --    0.33905   0.34100   0.34231   0.34660   0.34689
 Alpha virt. eigenvalues --    0.35113   0.35280   0.35464   0.35573   0.35641
 Alpha virt. eigenvalues --    0.35812   0.36348   0.36397   0.36578   0.36653
 Alpha virt. eigenvalues --    0.36853   0.36915   0.37211   0.37474   0.37810
 Alpha virt. eigenvalues --    0.37934   0.38084   0.38306   0.38382   0.38504
 Alpha virt. eigenvalues --    0.38718   0.39055   0.39089   0.39522   0.39932
 Alpha virt. eigenvalues --    0.40170   0.40255   0.40306   0.40641   0.40820
 Alpha virt. eigenvalues --    0.41250   0.41556   0.41592   0.42011   0.42487
 Alpha virt. eigenvalues --    0.42718   0.42966   0.43079   0.43485   0.43843
 Alpha virt. eigenvalues --    0.44019   0.44445   0.45004   0.45124   0.45503
 Alpha virt. eigenvalues --    0.45825   0.46025   0.46674   0.47363   0.47461
 Alpha virt. eigenvalues --    0.47691   0.47965   0.48136   0.48565   0.48928
 Alpha virt. eigenvalues --    0.49489   0.49579   0.50037   0.50371   0.50642
 Alpha virt. eigenvalues --    0.51154   0.51686   0.52016   0.52530   0.53068
 Alpha virt. eigenvalues --    0.53407   0.53796   0.54229   0.54938   0.55636
 Alpha virt. eigenvalues --    0.56496   0.57262   0.57398   0.57562   0.58570
 Alpha virt. eigenvalues --    0.58758   0.58904   0.59365   0.59851   0.60200
 Alpha virt. eigenvalues --    0.60513   0.60842   0.61350   0.61504   0.61679
 Alpha virt. eigenvalues --    0.62465   0.62697   0.62944   0.63446   0.64298
 Alpha virt. eigenvalues --    0.64694   0.64944   0.65038   0.65476   0.66011
 Alpha virt. eigenvalues --    0.66237   0.66818   0.67164   0.67637   0.67870
 Alpha virt. eigenvalues --    0.68486   0.69009   0.69556   0.69757   0.70490
 Alpha virt. eigenvalues --    0.70823   0.71207   0.71724   0.72146   0.72285
 Alpha virt. eigenvalues --    0.72515   0.72902   0.73304   0.73683   0.73995
 Alpha virt. eigenvalues --    0.74502   0.74918   0.75131   0.75551   0.76115
 Alpha virt. eigenvalues --    0.76361   0.76764   0.77111   0.77405   0.78335
 Alpha virt. eigenvalues --    0.78715   0.79259   0.79462   0.79565   0.79792
 Alpha virt. eigenvalues --    0.80255   0.80525   0.80840   0.81241   0.81573
 Alpha virt. eigenvalues --    0.82321   0.82824   0.83203   0.83815   0.84097
 Alpha virt. eigenvalues --    0.84319   0.85115   0.85822   0.86590   0.86713
 Alpha virt. eigenvalues --    0.87794   0.88472   0.88784   0.89435   0.91223
 Alpha virt. eigenvalues --    0.91745   0.92178   0.93478   0.94141   0.96156
 Alpha virt. eigenvalues --    0.97713   0.99076   1.00878   1.01259   1.02960
 Alpha virt. eigenvalues --    1.03292   1.03922   1.04602   1.05142   1.06713
 Alpha virt. eigenvalues --    1.07925   1.08498   1.09038   1.09584   1.10162
 Alpha virt. eigenvalues --    1.10409   1.11399   1.12250   1.13549   1.14727
 Alpha virt. eigenvalues --    1.15166   1.15620   1.15919   1.17059   1.17304
 Alpha virt. eigenvalues --    1.18464   1.19075   1.19395   1.19561   1.20078
 Alpha virt. eigenvalues --    1.20371   1.20594   1.20874   1.21837   1.22426
 Alpha virt. eigenvalues --    1.22722   1.22945   1.23232   1.23619   1.24072
 Alpha virt. eigenvalues --    1.24742   1.25288   1.25689   1.25986   1.26746
 Alpha virt. eigenvalues --    1.27192   1.27876   1.28229   1.28687   1.29357
 Alpha virt. eigenvalues --    1.29460   1.30033   1.30859   1.31079   1.31314
 Alpha virt. eigenvalues --    1.31953   1.32360   1.32943   1.33267   1.33877
 Alpha virt. eigenvalues --    1.34289   1.34689   1.35587   1.36336   1.36624
 Alpha virt. eigenvalues --    1.37045   1.37822   1.37956   1.38458   1.39082
 Alpha virt. eigenvalues --    1.39817   1.40051   1.40962   1.41217   1.41646
 Alpha virt. eigenvalues --    1.42699   1.42915   1.43522   1.45086   1.45313
 Alpha virt. eigenvalues --    1.45710   1.46371   1.46670   1.47198   1.48055
 Alpha virt. eigenvalues --    1.48632   1.49345   1.49961   1.50817   1.51603
 Alpha virt. eigenvalues --    1.51814   1.52753   1.53217   1.53423   1.53996
 Alpha virt. eigenvalues --    1.54283   1.54432   1.54758   1.55936   1.56641
 Alpha virt. eigenvalues --    1.57047   1.57366   1.57963   1.58966   1.59524
 Alpha virt. eigenvalues --    1.60146   1.60453   1.60584   1.60856   1.61489
 Alpha virt. eigenvalues --    1.61800   1.62045   1.62751   1.63178   1.63239
 Alpha virt. eigenvalues --    1.63748   1.64470   1.64749   1.65412   1.65781
 Alpha virt. eigenvalues --    1.66476   1.66610   1.66658   1.67305   1.67902
 Alpha virt. eigenvalues --    1.68286   1.68570   1.68973   1.69650   1.69783
 Alpha virt. eigenvalues --    1.70642   1.71045   1.71211   1.71772   1.71935
 Alpha virt. eigenvalues --    1.72783   1.73097   1.73540   1.73972   1.74494
 Alpha virt. eigenvalues --    1.74888   1.75235   1.75810   1.76268   1.76329
 Alpha virt. eigenvalues --    1.76668   1.77074   1.77993   1.78421   1.78776
 Alpha virt. eigenvalues --    1.79060   1.79964   1.80266   1.81269   1.81374
 Alpha virt. eigenvalues --    1.81708   1.82029   1.82537   1.83101   1.83756
 Alpha virt. eigenvalues --    1.84326   1.84419   1.84864   1.85410   1.86241
 Alpha virt. eigenvalues --    1.86888   1.87346   1.88339   1.88680   1.88709
 Alpha virt. eigenvalues --    1.89655   1.89747   1.89884   1.91343   1.91823
 Alpha virt. eigenvalues --    1.92689   1.93415   1.93580   1.94648   1.95474
 Alpha virt. eigenvalues --    1.96186   1.96973   1.97539   1.98309   1.99420
 Alpha virt. eigenvalues --    1.99887   2.00426   2.01335   2.01580   2.02239
 Alpha virt. eigenvalues --    2.03115   2.03283   2.04428   2.05042   2.06520
 Alpha virt. eigenvalues --    2.06976   2.07406   2.08238   2.08323   2.09669
 Alpha virt. eigenvalues --    2.09905   2.10570   2.11141   2.11301   2.11946
 Alpha virt. eigenvalues --    2.12941   2.13070   2.13170   2.13955   2.14615
 Alpha virt. eigenvalues --    2.15179   2.15750   2.16101   2.16470   2.17060
 Alpha virt. eigenvalues --    2.17315   2.18316   2.18816   2.19388   2.20572
 Alpha virt. eigenvalues --    2.21267   2.22275   2.22697   2.23253   2.25090
 Alpha virt. eigenvalues --    2.25673   2.26357   2.26700   2.27537   2.27911
 Alpha virt. eigenvalues --    2.29537   2.29716   2.30476   2.31261   2.31786
 Alpha virt. eigenvalues --    2.32282   2.33642   2.34996   2.36589   2.37805
 Alpha virt. eigenvalues --    2.38229   2.38706   2.39836   2.40901   2.41841
 Alpha virt. eigenvalues --    2.43181   2.44179   2.44685   2.46607   2.52539
 Alpha virt. eigenvalues --    2.54050   2.54120   2.55117   2.56230   2.57673
 Alpha virt. eigenvalues --    2.58189   2.58366   2.59046   2.60310   2.60724
 Alpha virt. eigenvalues --    2.61998   2.62350   2.63034   2.63590   2.64125
 Alpha virt. eigenvalues --    2.65184   2.65516   2.65686   2.66607   2.66963
 Alpha virt. eigenvalues --    2.67999   2.68328   2.68515   2.69095   2.69585
 Alpha virt. eigenvalues --    2.70105   2.70596   2.71911   2.72320   2.72998
 Alpha virt. eigenvalues --    2.74077   2.74692   2.74976   2.76851   2.77769
 Alpha virt. eigenvalues --    2.77862   2.82034   2.82796   2.83812   2.84500
 Alpha virt. eigenvalues --    2.85962   2.86794   2.87913   2.89952   2.90521
 Alpha virt. eigenvalues --    2.91305   2.92732   2.93255   2.93937   2.96027
 Alpha virt. eigenvalues --    2.96845   2.97674   2.98508   2.98913   2.99925
 Alpha virt. eigenvalues --    3.00597   3.01044   3.01557   3.02480   3.02813
 Alpha virt. eigenvalues --    3.04142   3.04977   3.05698   3.06157   3.06860
 Alpha virt. eigenvalues --    3.07655   3.08134   3.09037   3.09327   3.09631
 Alpha virt. eigenvalues --    3.09950   3.11756   3.12611   3.13502   3.13877
 Alpha virt. eigenvalues --    3.14237   3.15467   3.15824   3.16988   3.17500
 Alpha virt. eigenvalues --    3.18295   3.18649   3.19355   3.19859   3.20485
 Alpha virt. eigenvalues --    3.20804   3.21788   3.21971   3.22678   3.23262
 Alpha virt. eigenvalues --    3.23634   3.23802   3.24571   3.25294   3.25830
 Alpha virt. eigenvalues --    3.26552   3.26950   3.27382   3.28638   3.28941
 Alpha virt. eigenvalues --    3.29350   3.29537   3.29798   3.30380   3.30613
 Alpha virt. eigenvalues --    3.31088   3.31736   3.32773   3.33577   3.33737
 Alpha virt. eigenvalues --    3.34407   3.35167   3.35431   3.36522   3.37702
 Alpha virt. eigenvalues --    3.38234   3.39184   3.39507   3.39866   3.40985
 Alpha virt. eigenvalues --    3.42688   3.43501   3.44219   3.45130   3.45255
 Alpha virt. eigenvalues --    3.46564   3.47769   3.48914   3.50083   3.53537
 Alpha virt. eigenvalues --    3.55419   3.56757   3.58886   3.60269   3.65209
 Alpha virt. eigenvalues --    3.65424   3.86357   3.87159   3.87629   3.87997
 Alpha virt. eigenvalues --    3.90040   3.90695   3.91179   3.91344   3.93574
 Alpha virt. eigenvalues --    3.93762   3.94225   3.95239   3.95404   3.95799
 Alpha virt. eigenvalues --    3.96401   3.96624   3.99243   4.00006   4.01599
 Alpha virt. eigenvalues --    4.02290   4.02925   4.04289   4.06685   4.07493
 Alpha virt. eigenvalues --    4.08200   4.08408   4.09813   4.11677   4.14068
 Alpha virt. eigenvalues --    4.14636   4.15362   4.20839   4.21369   4.23758
 Alpha virt. eigenvalues --    4.24706   4.25986   4.28867   4.29786   4.30277
 Alpha virt. eigenvalues --    4.32104   4.32668   4.33532   4.36198   4.37718
 Alpha virt. eigenvalues --    4.40692   4.41483   4.42523   4.43004   4.45295
 Alpha virt. eigenvalues --    4.46519   5.21724   5.23438   5.24591   5.25747
 Alpha virt. eigenvalues --    5.26098   5.26928   5.27517   5.29747   5.31208
 Alpha virt. eigenvalues --    5.31480   5.32933   5.34165   5.36409   5.39390
 Alpha virt. eigenvalues --    5.40973   5.45849   5.51390   5.51650   5.53543
 Alpha virt. eigenvalues --    5.54785   5.55304   5.55454   5.55593   5.56904
 Alpha virt. eigenvalues --    5.57430   5.58021   5.58810   5.60040   5.60133
 Alpha virt. eigenvalues --    5.61248   5.62445   5.65454   5.71113   5.73184
 Alpha virt. eigenvalues --    5.73441   5.73699   5.75089   5.75908   5.76080
 Alpha virt. eigenvalues --    5.76292   5.76864   5.78995   5.79476   5.80627
 Alpha virt. eigenvalues --    5.82870   5.87968   5.90584   5.96675  23.78283
 Alpha virt. eigenvalues --   23.84624  23.85270  23.85581  23.86338  23.88394
 Alpha virt. eigenvalues --   23.89222  23.89654  23.90360  23.91097  23.91734
 Alpha virt. eigenvalues --   23.92184  23.93136  23.94753  23.96200  23.97550
 Alpha virt. eigenvalues --   23.98000  23.99821  49.94882  49.95710  49.95965
 Alpha virt. eigenvalues --   49.97361  49.97428  49.97865  49.98195  49.98264
 Alpha virt. eigenvalues --   49.99176  49.99932  50.01547  50.01939  50.02688
 Alpha virt. eigenvalues --   50.05049  50.06651  50.09184
          Condensed to atoms (all electrons):
 Mulliken charges:
               1
     1  O    0.430851
     2  O    0.282806
     3  O    0.398346
     4  O    0.352882
     5  O   -0.029403
     6  O   -0.120002
     7  O    0.160974
     8  O   -0.040993
     9  O   -0.011475
    10  O    0.033071
    11  O   -0.144897
    12  O   -0.088324
    13  O   -0.095152
    14  O   -0.179413
    15  O   -0.027927
    16  O   -0.152010
    17  C   -1.021877
    18  C   -0.244018
    19  C   -0.711872
    20  C   -1.165338
    21  C    0.524566
    22  C   -0.140911
    23  C    0.126988
    24  C   -1.208122
    25  C   -0.901384
    26  C   -0.668614
    27  C   -0.397588
    28  C   -0.976782
    29  C   -0.569086
    30  C   -1.050870
    31  C   -0.672598
    32  C   -0.563814
    33  C   -0.355923
    34  C   -0.466348
    35  H    0.397905
    36  H    0.325906
    37  H    0.294407
    38  H    0.341263
    39  H    0.297266
    40  H    0.297671
    41  H    0.396155
    42  H    0.422492
    43  H    0.272093
    44  H    0.302350
    45  H    0.205975
    46  H    0.346203
    47  H    0.298777
    48  H    0.348507
    49  H    0.272319
    50  H    0.201554
    51  H    0.392190
    52  H    0.353481
    53  H    0.330845
    54  H    0.252080
    55  H    0.285109
    56  H    0.272152
    57  H    0.282231
    58  H    0.299284
    59  H    0.265351
    60  H    0.262765
    61  H    0.288593
    62  H    0.272648
    63  H    0.281092
    64  H    0.267923
    65  H    0.299232
    66  H    0.268439
 Sum of Mulliken charges =  -0.00000
 Mulliken charges with hydrogens summed into heavy atoms:
               1
     1  O    0.430851
     2  O    0.282806
     3  O    0.398346
     4  O    0.352882
     5  O    0.222678
     6  O    0.165107
     7  O    0.160974
     8  O    0.231159
     9  O    0.270756
    10  O    0.332355
    11  O    0.143697
    12  O    0.184324
    13  O    0.185940
    14  O    0.088511
    15  O    0.271305
    16  O    0.116429
    17  C   -1.021877
    18  C    0.153887
    19  C   -0.385966
    20  C   -0.870931
    21  C    0.865828
    22  C    0.156355
    23  C    0.424659
    24  C   -0.811967
    25  C   -0.478892
    26  C   -0.094170
    27  C    0.154591
    28  C   -0.678006
    29  C   -0.220579
    30  C   -0.576996
    31  C   -0.280408
    32  C   -0.210334
    33  C   -0.025078
    34  C    0.061767
 Electronic spatial extent (au):  <R**2>=          18946.7725
 Charge=             -0.0000 electrons
 Dipole moment (field-independent basis, Debye):
    X=              4.2559    Y=             -5.6244    Z=              2.5722  Tot=              7.5075
 Quadrupole moment (field-independent basis, Debye-Ang):
   XX=           -177.7059   YY=           -208.3246   ZZ=           -186.5884
   XY=            -30.8472   XZ=             -8.9794   YZ=            -23.5642
 Traceless Quadrupole moment (field-independent basis, Debye-Ang):
   XX=             13.1670   YY=            -17.4516   ZZ=              4.2846
   XY=            -30.8472   XZ=             -8.9794   YZ=            -23.5642
 Octapole moment (field-independent basis, Debye-Ang**2):
  XXX=            131.1980  YYY=           -222.4591  ZZZ=             30.8470  XYY=             24.1649
  XXY=             14.2765  XXZ=             51.9137  XZZ=             69.3056  YZZ=             63.8358
  YYZ=             42.9639  XYZ=              4.0563
 Hexadecapole moment (field-independent basis, Debye-Ang**3):
 XXXX=         -16735.0990 YYYY=          -4845.3406 ZZZZ=          -1972.5029 XXXY=          -1112.4227
 XXXZ=           -636.2381 YYYX=           -209.3329 YYYZ=            -77.6368 ZZZX=           -165.9583
 ZZZY=            -80.5176 XXYY=          -3317.6318 XXZZ=          -2561.3369 YYZZ=          -1083.2579
 XXYZ=           -320.5222 YYXZ=              2.9532 ZZXY=           -143.8478
 N-N= 4.288338553877D+03 E-N=-1.305785063784D+04  KE= 1.900968032815D+03
 R6APFD:  NTU= -4 IXU= 1 FactS= 1.050
 Calling FoFJK, ICntrl=      2127 FMM=T ISym2X=0 I1Cent= 0 IOpClX= 0 NMat=1 NMatS=1 NMatT=0.
 ***** Axes restored to original set *****
 -------------------------------------------------------------------
 Center     Atomic                   Forces (Hartrees/Bohr)
 Number     Number              X              Y              Z
 -------------------------------------------------------------------
      1        8           0.012660098    0.014665389   -0.005547269
      2        8          -0.011397897   -0.007329543    0.009529912
      3        8          -0.007891299   -0.014422308    0.000302371
      4        8           0.020924072    0.014238001    0.001204810
      5        8           0.001323374    0.004889530    0.001957244
      6        8          -0.008280509    0.008216755    0.000649886
      7        8          -0.005120104    0.009299649   -0.006591000
      8        8          -0.001083301    0.007749282   -0.007207715
      9        8           0.000017433    0.000684893   -0.001674222
     10        8          -0.002155301    0.007110014    0.002552645
     11        8          -0.007214610   -0.005228676   -0.009109313
     12        8           0.000550816    0.004248187    0.005835107
     13        8           0.002685600   -0.006363903   -0.000294535
     14        8           0.006319014    0.009970016    0.005456864
     15        8          -0.000769526    0.000150773    0.004136384
     16        8           0.004363433   -0.004864106    0.011856724
     17        6           0.018206066   -0.005431087   -0.014737987
     18        6          -0.000165481   -0.011669259    0.022150987
     19        6          -0.015358616    0.012467433   -0.019529681
     20        6           0.014882045    0.014809354    0.006654590
     21        6           0.028128880   -0.004466404    0.000444020
     22        6          -0.020215684   -0.013048892    0.012521693
     23        6           0.003722553    0.010016943   -0.011472893
     24        6           0.014326710   -0.006343526   -0.023492809
     25        6          -0.011804789   -0.005749654    0.020914285
     26        6          -0.025667268   -0.004194119   -0.003390195
     27        6          -0.002437249   -0.004987484   -0.005036622
     28        6          -0.000314001   -0.023523809    0.001963815
     29        6          -0.013809315   -0.000439169   -0.016508568
     30        6           0.012232642    0.001292666   -0.005225718
     31        6           0.003400956    0.000016235   -0.015688220
     32        6          -0.000872570    0.020933781    0.016761021
     33        6          -0.004056067   -0.005946412    0.001163990
     34        6          -0.006210045   -0.005737706    0.006254806
     35        1          -0.004982841    0.001753410   -0.009326866
     36        1           0.005740387   -0.002304014    0.006628484
     37        1          -0.002792679    0.009529139    0.000813786
     38        1          -0.004195215    0.002997147    0.000024495
     39        1           0.006559709    0.008526245    0.000120543
     40        1          -0.004971915   -0.003333429    0.003211636
     41        1          -0.002529674    0.001451633    0.000279991
     42        1           0.002039819    0.003705828    0.000395343
     43        1           0.013547306    0.004551974    0.001747430
     44        1           0.000695730    0.009245710    0.004853588
     45        1          -0.003402291    0.002666041    0.000211730
     46        1           0.001238886   -0.003242604    0.002238737
     47        1           0.000526738    0.000239056    0.008215946
     48        1           0.006679016   -0.000843662    0.006424878
     49        1          -0.006122191   -0.007452394    0.005336037
     50        1          -0.008507321    0.001117244    0.003543072
     51        1          -0.007969882   -0.003055013    0.006553486
     52        1           0.001356821   -0.002042076    0.000673923
     53        1          -0.002128612   -0.003558150    0.000437770
     54        1           0.008178459   -0.004402708   -0.011047337
     55        1           0.000592276   -0.014115194   -0.000443276
     56        1           0.003619249   -0.006865216    0.010855963
     57        1          -0.007951547   -0.003281920    0.009766790
     58        1           0.008964834   -0.000367963   -0.008639755
     59        1           0.003081272    0.006713173   -0.006333792
     60        1           0.004992936    0.003183938   -0.008948919
     61        1           0.006234631    0.000539728    0.014390898
     62        1           0.004897513   -0.010447215   -0.007755405
     63        1          -0.006374427    0.011751834    0.004396117
     64        1          -0.007446000   -0.008396146   -0.010589645
     65        1           0.003508823   -0.008930445   -0.005721739
     66        1          -0.011999871    0.003653206   -0.009118312
 -------------------------------------------------------------------
 Cartesian Forces:  Max     0.028128880 RMS     0.008762030

 GradGradGradGradGradGradGradGradGradGradGradGradGradGradGradGradGradGrad
 Berny optimization.
 FormGI is forming the generalized inverse of G from B-inverse, IUseBI=4.
 Internal  Forces:  Max     0.027906592 RMS     0.005548948
 Search for a local minimum.
 Step number   1 out of a maximum of  396
 All quantities printed in internal units (Hartrees-Bohrs-Radians)
 Mixed Optimization -- RFO/linear search
 Second derivative matrix not updated -- first step.
 ITU=  0
     Eigenvalues ---    0.00385   0.00418   0.00437   0.00480   0.00527
     Eigenvalues ---    0.00589   0.00597   0.00629   0.00632   0.00836
     Eigenvalues ---    0.01298   0.01301   0.01328   0.01335   0.01335
     Eigenvalues ---    0.01343   0.01348   0.01353   0.01364   0.01375
     Eigenvalues ---    0.01376   0.01378   0.01384   0.01453   0.01463
     Eigenvalues ---    0.01478   0.01485   0.02880   0.02886   0.03282
     Eigenvalues ---    0.03289   0.03292   0.03734   0.04258   0.04369
     Eigenvalues ---    0.04415   0.04524   0.04543   0.04634   0.04663
     Eigenvalues ---    0.04845   0.04861   0.04909   0.05022   0.05087
     Eigenvalues ---    0.05223   0.05316   0.05319   0.05323   0.05375
     Eigenvalues ---    0.05451   0.05484   0.05560   0.05639   0.05698
     Eigenvalues ---    0.05726   0.05805   0.05917   0.06004   0.06079
     Eigenvalues ---    0.06507   0.06551   0.06596   0.06689   0.06923
     Eigenvalues ---    0.06995   0.07154   0.07227   0.07237   0.07266
     Eigenvalues ---    0.07377   0.07837   0.07874   0.07997   0.08978
     Eigenvalues ---    0.09009   0.09360   0.10263   0.10395   0.10811
     Eigenvalues ---    0.11234   0.11265   0.11427   0.11462   0.11464
     Eigenvalues ---    0.11611   0.13136   0.13676   0.13690   0.13701
     Eigenvalues ---    0.13771   0.14352   0.14586   0.15455   0.16000
[...]
 3,0.00016799,0.00029689,0.00014788,-0.00098228,0.00131536,0.00081074,-
 0.00001269,-0.00002715,-0.00001112,0.00008901,0.00002614,-0.00002510,0
 .00003515,-0.00003873,-0.00001750,-0.00005483,0.00034513,0.00011557,0.
 00003452,-0.00002522,0.00003965,-0.00035704,0.00047611,0.00027811,-0.0
 0025783,0.00004528,0.00004165,0.00030986,0.00013307,0.00080557,-0.0000
 0575,0.00001948,-0.00002007,0.00003022,-0.00002437,0.00002664,-0.00009
 669,-0.00014943,-0.00012084,-0.00079882,-0.00037600,0.00117495,-0.0000
 1252,-0.00001931,-0.00000143,-0.00000266,-0.00001757,0.00000488,-0.001
 42783,0.00021357,-0.00085566,-0.00132568,-0.00057745,0.00071538,-0.000
 00060,-0.00002591,-0.00003534,0.00003380,-0.00001641,0.00002375,0.0002
 3273,0.00023582,-0.00017173,0.00001525,0.00008319,0.00001274,0.0000540
 5,-0.00011693,-0.00001938,-0.00013750,0.00009139,-0.00001603,-0.000016
 05,-0.00010313,-0.00004704,0.00054204,-0.00067804,0.00007459,0.0004789
 6,-0.00011369,-0.00017806,0.00027820,-0.00015645,0.00003249,-0.0000171
 0,0.00000500,0.00001471,0.00000215,0.00006430,0.00002573,-0.00001603,0
 .00001069,0.00002502,-0.22955105,0.26600114,0.00107701,-0.00039011,-0.
 00038958,0.00063689,-0.00042341,-0.00059065,0.00095402,0.00060409,0.00
 145219,-0.00147990,-0.00048522,0.00090950,0.00009368,-0.00012385,-0.00
 017986,-0.00056915,0.00014656,-0.00011298,-0.00063632,-0.00011799,-0.0
 0065327,0.00042939,0.00030360,0.00005784,0.00008826,0.00061757,0.00001
 868,-0.00108393,0.00139609,-0.00141406,0.00012865,-0.00004252,-0.00009
 107,-0.00014572,0.00000418,0.00002949,-0.00019459,0.00003183,-0.000053
 32,-0.02142687,0.02218506,-0.00400318,-0.00020137,-0.00011715,-0.00017
 032,0.00065379,-0.00132055,-0.00256352,-0.00054864,0.00091275,0.000473
 81,-0.00009739,0.00016851,0.00011910,0.00030433,0.00050765,-0.00035414
 ,-0.00115429,-0.00057654,0.00032668,-0.00342865,-0.00063286,0.00070964
 ,-0.00024803,-0.00004297,-0.00023067,0.00006524,-0.00078338,-0.0023562
 9,-0.00010634,-0.00038917,0.00024715,-0.00009639,-0.00078821,-0.002247
 18,-0.00002574,-0.00008033,0.00007750,0.00064651,-0.00015533,-0.001507
 67,0.00100574,0.00083558,0.00038771,0.00002291,-0.00007043,-0.00008175
 ,0.00194381,0.00002153,-0.00374661,0.00026331,0.00001451,0.00004329,0.
 00004106,0.00004040,-0.00014903,0.00059849,0.00001930,0.00048869,-0.00
 065550,0.00094956,0.00045792,-0.00000066,-0.00003605,-0.00003392,0.000
 00585,-0.00004564,-0.00000744,0.00010003,0.00006559,-0.00000193,0.0000
 7984,-0.00020252,0.00003237,0.00002893,-0.00002908,0.00001027,-0.00204
 173,0.00005847,-0.00122762,-0.00008812,-0.00004155,0.00004133,-0.00000
 343,0.00017827,0.00034032,-0.00001294,0.00004570,-0.00004971,0.0000579
 0,-0.00002509,0.00003096,0.00000739,-0.00004352,0.00056319,0.00147280,
 0.00170636,-0.00106975,-0.00003250,-0.00007932,-0.00004117,-0.00007008
 ,-0.00000681,0.00003635,-0.00034552,0.00056400,0.00109295,0.00211823,0
 .00008071,-0.00028530,0.00000415,-0.00005480,-0.00003281,-0.00003252,0
 .00002147,0.00001505,0.00035933,0.00000002,-0.00019937,0.00006261,0.00
 001514,0.00007570,0.00005515,-0.00005928,0.00000226,-0.00012616,-0.000
 00605,0.00004098,-0.00001265,-0.00009353,0.00005915,-0.00023398,0.0003
 8803,0.00178893,0.00025971,-0.00006434,-0.00018482,-0.00005547,-0.0000
 2699,0.00002967,-0.00005238,-0.00000487,0.00001024,0.00011015,-0.00002
 119,-0.00012678,0.00003577,-0.00000871,0.00003561,0.02113023,-0.024980
 90,0.01292456,0.00013821,0.00002007,-0.00002921,0.00011156,-0.00000376
 ,-0.00000008,0.00026505,0.00021061,0.00011970,0.00129751,0.00095652,0.
 00108909,0.00003138,0.00003272,-0.00001027,0.00006786,-0.00003363,-0.0
 0000706,0.00261261,0.00190779,0.00208078,0.00007787,0.00008938,0.00001
 186,-0.00000817,0.00014870,0.00000788,0.00023514,0.00019115,-0.0000138
 9,0.00006174,0.00002562,0.00003022,-0.00044168,0.00040886,0.00046063,-
 0.00049003,0.00021672,0.00048170,0.00025347,0.00005030,-0.00008366,-0.
 14367963,0.21783000,-0.01090314,0.00014567,0.00018507,-0.00030638,-0.0
 0013020,0.00000241,-0.00002632,-0.00000736,-0.00001673,0.00000288,-0.0
 0004798,0.00002545,0.00001340,-0.00020311,-0.00014226,0.00003429,-0.00
 001975,0.00002033,0.00002246,-0.00004701,-0.00003398,-0.00004332,-0.00
 016584,-0.00017573,-0.00005278,-0.00001142,-0.00010101,0.00001550,-0.0
 0000166,-0.00005061,-0.00009459,-0.00003645,-0.00002674,-0.00001157,-0
 .00048257,0.00017997,0.00007532,-0.00238097,-0.00068533,-0.00526777,0.
 00066319,0.00017711,-0.00089304,-0.00016387,-0.00004526,0.00002164,-0.
 00041806,-0.00113322,-0.00001627,0.01262759,-0.03214054,0.00055045,-0.
 00156344,-0.00574337,0.00245299,-0.00051516,0.00015523,0.00031639,0.00
 000807,0.00000491,0.00000140,0.00000420,0.00000045,-0.00000554,0.00002
 267,0.00001834,0.00000490,-0.00001025,-0.00000054,0.00000175,0.0000025
 6,-0.00000560,0.00000229,-0.00000284,0.00004454,0.00002672,-0.00000250
 ,0.00000976,0.00000261,0.00000258,-0.00003577,0.00001041,-0.00000339,0
 .00000901,-0.00001054,0.00000765,0.00000189,-0.00000115,0.00003694,-0.
 00002552,-0.00000175,-0.00012373,-0.00005894,0.00010508,-0.00003508,-0
 .00003013,0.00025905,0.00008982,-0.00001210,-0.00037289,0.00000705,0.0
 0000128,0.00000543,0.00003190,0.00000558,-0.00002687,-0.00014667,0.000
 06071,-0.00045979,-0.00374227,-0.00407619,-0.00058225,0.00020995,0.000
 59424,-0.00023657,-0.00000872,-0.00001636,0.00000252,-0.00002706,0.000
 01303,0.00001115,-0.00002101,-0.00002124,0.00000119,0.00000157,-0.0000
 2408,-0.00000171,0.00001736,-0.00005396,0.00001706,0.00025586,0.000036
 47,0.00046202,0.00017329,0.00018913,-0.00033209,-0.00001762,-0.0000037
 2,-0.00000822,0.00013619,-0.00017934,-0.00009950,-0.00002963,0.0006636
 5,-0.00009882,-0.00012948,-0.00004920,0.00005294,0.13573168,0.00008005
 ,-0.00003351,-0.00002682,0.00003862,-0.00003331,-0.00000575,0.00010428
 ,0.00002220,0.00004617,0.00019093,-0.00027145,0.00004763,0.00001581,-0
 .00000486,0.00000016,0.00003254,-0.00003037,0.00000029,0.00104728,0.00
 003063,-0.00036821,0.00005736,0.00002676,0.00001105,0.00002743,0.00003
 091,0.00000655,0.00024606,0.00010795,0.00001819,0.00002303,-0.00000223
 ,0.00000600,0.00030713,-0.00012469,0.00030321,0.00008751,0.00016247,0.
 00061981,0.00012765,-0.00001212,-0.00002616,0.17140990,-0.41920728,0.0
 0541297,0.00060281,-0.00025043,-0.00043276,-0.00006324,0.00004572,0.00
 000598,-0.00000724,0.00000594,-0.00000375,-0.00002339,0.00001747,0.000
 00080,-0.00009079,-0.00001994,0.00002168,-0.00000510,0.00002886,0.0000
 0828,-0.00003792,-0.00000585,-0.00001736,-0.00005551,-0.00001113,-0.00
 006137,-0.00000538,-0.00002503,0.00001079,-0.00010703,-0.00000572,-0.0
 0008264,-0.00000797,-0.00000457,-0.00000036,-0.00012486,0.00003499,-0.
 00000607,-0.00035891,0.00045536,0.00001133,-0.00023101,0.00010482,-0.0
 0050697,-0.00006822,-0.00001944,0.00001411,0.00011702,-0.00020547,-0.0
 0069473,0.00876765,-0.03254179,0.00201289,0.00090659,0.00090265,0.0004
 5030,-0.00043429,0.00007003,0.00097563,0.00000384,0.00000050,0.0000008
 6,0.00000135,-0.00000107,-0.00000085,0.00000793,0.00000305,0.00000149,
 -0.00000009,-0.00000561,-0.00000278,0.00000044,-0.00000400,-0.00000256
 ,-0.00000579,0.00001091,0.00000990,0.00000345,0.00000838,-0.00000232,-
 0.00000460,-0.00002192,-0.00000581,-0.00000301,0.00000714,-0.00000229,
 0.00000670,-0.00000006,-0.00000076,0.00003345,-0.00001306,0.00003582,-
 0.00001857,0.00004645,0.00000601,0.00021427,-0.00014071,0.00008975,0.0
 0012269,0.00050463,0.00035320,-0.00000019,-0.00000170,0.00000079,0.000
 01214,0.00000301,-0.00001109,0.00010574,0.00021059,0.00035313,-0.00384
 888,-0.00174429,-0.00192414,0.00069629,-0.00066589,-0.00016520,-0.0000
 0379,-0.00000299,0.00000154,-0.00000877,0.00001202,0.00000224,-0.00001
 737,0.00000007,-0.00000054,-0.00000555,-0.00001261,-0.00000012,-0.0000
 3229,-0.00003521,0.00001577,-0.00026720,0.00011053,0.00039399,-0.00001
 384,0.00001720,-0.00010118,-0.00000792,0.00000158,-0.00000204,-0.00009
 978,0.00004223,0.00000823,0.00024187,-0.00032757,-0.00079536,-0.000105
 77,-0.00000169,0.00002033,-0.17959572,0.45257519,0.00006493,-0.0000339
 4,-0.00007173,-0.00000363,-0.00003659,-0.00009272,0.00005127,0.0000423
 1,-0.00006642,0.00069719,0.00008412,-0.00101945,-0.00000974,-0.0000076
 6,-0.00002667,-0.00002064,0.00000821,-0.00002023,0.00103938,0.00077514
 ,-0.00319846,0.00000937,0.00001024,-0.00002656,0.00001072,0.00000248,-
 0.00004514,-0.00016644,-0.00008097,-0.00022031,0.00000749,-0.00000403,
 -0.00002413,0.00140544,0.00081664,0.00051154,-0.00063746,0.00050451,-0
 .00088787,-0.00022466,-0.00005799,-0.00013175,-0.01309848,0.01122298,-
 0.00539033,-0.00149185,-0.00033788,-0.00016803,-0.00000769,0.00006603,
 0.00005000,-0.00000185,0.00000018,0.00001497,0.00002059,0.00000309,-0.
 00000467,-0.00008420,-0.00002927,0.00005569,-0.00000928,-0.00000314,0.
 00009494,-0.00001054,-0.00001831,0.00002887,0.00005563,-0.00004244,-0.
 00002080,-0.00002947,-0.00000375,-0.00002607,0.00005432,0.00000043,0.0
 0028039,-0.00000718,-0.00000674,0.00001659,-0.00023028,0.00012585,0.00
 034293,-0.00211694,-0.00036760,0.00148562,-0.00260071,-0.00214319,-0.0
 0089505,0.00011349,0.00006370,0.00000209,0.00003580,-0.00300290,-0.000
 25883,0.00264033,-0.00520010,-0.00060863,0.00055816,0.00068957,0.00229
 803,0.00202592,0.00120589,0.00041126,-0.00000265,-0.00000115,-0.000001
 60,0.00000581,0.00000160,-0.00000671,-0.00000365,0.00000420,-0.0000036
 7,0.00000490,-0.00000827,0.00000056,-0.00000008,-0.00000773,-0.0000098
 5,0.00002855,0.00004407,0.00001968,0.00001711,0.00000923,-0.00000956,0
 .00000597,-0.00002577,-0.00003644,0.00000069,0.00000188,-0.00000555,0.
 00000332,-0.00000221,0.00000241,0.00001818,-0.00002158,-0.00003268,0.0
 0006590,-0.00003856,0.00000829,0.00003727,0.00008531,-0.00016877,0.000
 14229,0.00131228,-0.00224863,-0.00001608,-0.00001887,0.00000396,-0.000
 00756,-0.00000616,-0.00000033,-0.00011579,0.00051875,-0.00033614,0.000
 73963,0.00162762,0.00026639,-0.00029224,0.00018053,-0.00022251,0.00000
 463,0.00000430,0.00000759,0.00000496,-0.00000270,0.00000758,-0.0000034
 4,0.00000123,0.00000960,-0.00000394,0.00000210,0.00001538,0.00001477,0
 .00003663,0.00005206,-0.00008496,-0.00060405,-0.00154215,-0.00029893,-
 0.00033542,-0.00001609,-0.00000716,-0.00000006,0.00000700,-0.00014161,
 -0.00001190,0.00031619,0.00041390,-0.00105181,0.00063147,0.00020435,0.
 00008210,0.00011444,0.01090940,-0.00605097,0.01049786,-0.00009211,0.00
 024899,0.00021837,0.00022697,0.00023000,0.00038685,0.00006995,0.000286
 24,0.00023301,-0.00176160,-0.00037047,0.00041809,0.00010479,0.00016633
 ,0.00004353,0.00025635,-0.00009107,0.00003978,-0.00091445,-0.00043227,
 -0.00179192,-0.00003271,0.00007903,-0.00000137,-0.00010145,0.00016274,
 -0.00000901,-0.00067209,0.00013180,-0.00042632,0.00008158,0.00006505,0
 .00011914,-0.00006615,-0.00010184,-0.00037394,0.00007146,-0.00006582,-
 0.00022513,0.00249022,0.00134819,0.00006800,0.00013981,-0.00028191,-0.
 00039008,-0.06565609,0.08867438,-0.02249619,-0.00015379,-0.00037010,-0
 .00027331,0.00000647,-0.00007060,-0.00003936,-0.00022118,0.00001573,0.
 00010624,0.00006067,-0.00016133,-0.00013446,0.00000391,0.00004218,-0.0
 0040800,0.00000399,-0.00006723,0.00000403,-0.00007390,-0.00032318,0.00
 003915,0.00004147,-0.00009390,-0.00008105,0.00026927,-0.00015909,0.000
 18953,-0.00005200,-0.00000712,-0.00007026,0.00070466,-0.00017389,-0.00
 134702,0.00206350,0.00013718,0.00170173,-0.00019677,0.00001184,-0.0000
 4159,-0.00145991,-0.00009182,0.00012595,0.00008447,0.00002390,0.000165
 91,-0.00007889,0.00024472,-0.00012545,0.00020181,0.00136286,0.00023734
 ,-0.01622502,0.03979048,-0.01424529,0.00002243,0.00002483,0.00001546,-
 0.00000859,0.00000316,0.00000598,0.00000990,0.00001922,0.00002133,-0.0
 0010050,0.00005338,0.00000402,-0.00000344,0.00001266,0.00001255,-0.000
 09706,-0.00012457,-0.00010414,-0.00001803,-0.00003511,0.00002664,-0.00
 004112,0.00006051,0.00000154,-0.00000094,0.00000257,0.00000359,-0.0000
 0450,0.00001242,-0.00001064,-0.00003054,0.00009204,0.00006895,0.000230
 72,-0.00056413,-0.00119744,-0.00004059,0.00001854,-0.00010591,-0.00005
 816,-0.00001322,0.00004402,0.00034637,0.00019909,0.00002242,0.00032029
 ,0.00009721,-0.00012874,-0.00000231,-0.00003587,-0.00002740,0.00010708
 ,-0.00010645,-0.00004399,0.00014352,-0.00011249,-0.00005763,-0.0000215
 6,-0.00005855,0.00000028,-0.00008815,0.00004481,0.00001639,0.00001169,
 -0.00006003,-0.00001548,0.00001607,-0.00001712,-0.00000396,0.00014780,
 0.00012527,0.00016663,0.00024872,-0.00002561,-0.00115907,-0.00596478,0
 .00073556,0.00268108,-0.00001177,-0.00000403,-0.00002195,0.00009338,0.
 00001312,-0.00000871,-0.00004288,0.00001692,0.00008649,-0.00020028,-0.
 00259088,0.00031287,-0.00021359,0.00002017,0.00031749,0.08612762,0.000
 17262,-0.00003898,-0.00003513,0.00010487,-0.00009811,0.00002821,0.0003
 0318,0.00020646,0.00019946,-0.00051877,-0.00031311,0.00046159,0.000058
 13,0.00000893,0.00001139,0.00012323,-0.00009873,0.00001109,-0.00078424
 ,-0.00054802,0.00021469,0.00009690,0.00007473,0.00002230,0.00002339,0.
 00012024,0.00001403,0.00005561,0.00026580,-0.00003748,0.00005238,-0.00
 000281,0.00001861,-0.00001527,-0.00005495,0.00013853,-0.00017687,0.000
 01689,0.00026728,0.00120400,-0.00003121,-0.00014655,-0.00035247,-0.000
 24119,0.00005430,0.12917721,-0.41772485,0.17717734,-0.00015955,0.00007
 439,-0.00001243,-0.00003123,0.00001452,-0.00002042,-0.00007637,0.00000
 750,0.00002117,-0.00020560,-0.00010389,0.00005691,0.00007631,0.0002506
 5,-0.00003525,-0.00005657,-0.00002275,-0.00004604,-0.00019563,-0.00026
 705,-0.00011518,-0.00000526,-0.00007182,0.00003197,-0.00009847,-0.0000
 7691,-0.00023371,-0.00002062,-0.00000528,-0.00000226,0.00014380,-0.000
 25709,-0.00069821,0.00027947,0.00046595,-0.00024072,0.00001895,0.00005
 139,-0.00001744,-0.00052270,-0.00031438,0.00001295,-0.00016393,0.00003
 471,-0.00019565,0.00062125,-0.00022946,0.00052035,-0.00015625,-0.00030
 701,0.00015608,0.00129700,-0.00779722,0.00339718,0.00001063,0.00000118
 ,0.00000349,-0.00000178,-0.00000116,0.00000057,0.00002465,0.00001858,0
 .00000566,0.00001319,-0.00003278,-0.00001088,0.00000403,-0.00000340,0.
 00000365,-0.00007381,0.00000444,-0.00000614,-0.00000890,0.00000124,0.0
 0000157,-0.00000313,0.00000210,0.00002418,-0.00000693,0.00001325,-0.00
 000471,0.00001539,0.00000052,-0.00000126,0.00013748,0.00003249,0.00038
 641,-0.00074843,0.00044366,-0.00122409,0.00004785,-0.00011480,0.000157
 12,-0.00003572,-0.00001280,0.00001432,0.00006353,0.00003286,0.00001536
 ,0.00015544,0.00006298,-0.00006952,0.00000452,-0.00002956,-0.00001849,
 0.00002785,0.00002615,-0.00006559,0.00009044,-0.00026581,-0.00028054,-
 0.00000807,-0.00001244,0.00000466,-0.00001460,0.00004289,0.00001094,-0
 .00002926,-0.00001055,-0.00000245,-0.00000539,-0.00002449,0.00000198,0
 .00004752,0.00002970,0.00015248,-0.00132277,0.00130165,0.00013091,0.00
 104071,0.00188529,-0.00092243,-0.00001572,0.00000253,-0.00000417,0.000
 01117,0.00000071,-0.00006511,0.00005038,0.00002409,-0.00003728,-0.0018
 0898,-0.00164231,0.00046739,0.00003361,0.00018733,0.00003054,-0.127963
 39,0.42504911,0.00033446,-0.00007344,-0.00020555,0.00014439,-0.0001083
 5,-0.00025190,0.00065887,0.00057485,0.00017624,-0.00012319,0.00036408,
 0.00092364,0.00001122,-0.00000346,-0.00007046,0.00002487,-0.00002641,-
 0.00005898,-0.00080644,0.00095587,0.00094946,0.00011778,0.00013534,-0.
 00001948,0.00003039,0.00020037,-0.00004396,-0.00003266,0.00015000,-0.0
 0046133,0.00007997,0.00001188,-0.00001659,-0.00026375,0.00023263,0.000
 48319,-0.00032156,0.00015385,0.00003389,-0.00005188,-0.00004903,-0.000
 99129,-0.00034844,-0.00010863,-0.00039188,-0.04472811,0.19643824,-0.09
 477044,-0.00019836,0.00016617,0.00007799,-0.00001132,0.00000263,0.0000
 3820,0.00000253,0.00003272,0.00000460,-0.00047701,-0.00026344,0.000240
 31,-0.00003686,0.00006095,0.00031349,-0.00005183,-0.00007574,-0.000037
 00,-0.00049841,-0.00056471,0.00020707,-0.00010658,-0.00010348,0.000008
 52,0.00011226,-0.00013354,0.00014406,-0.00004730,-0.00004064,0.0000234
 3,0.00010146,-0.00001522,-0.00151527,-0.00101356,0.00041631,-0.0019027
 1,0.00050006,-0.00006131,0.00001382,0.00016051,-0.00000900,-0.00017271
 ,0.00027529,-0.00015799,-0.00006737,0.00016262,0.00053337,-0.00027216,
 0.00257281,-0.00396178,0.00132540,0.00571667,-0.01377909,0.00488726,0.
 00000471,0.00000070,-0.00000600,0.00002295,0.00000653,-0.00002414,0.00
 004796,0.00004649,-0.00000491,0.00001440,-0.00004180,0.00002517,0.0000
 0545,-0.00001598,-0.00000746,-0.00003251,0.00006958,0.00010756,0.00001
 658,0.00002158,-0.00001291,-0.00000075,-0.00003962,-0.00003093,-0.0000
 0596,0.00001709,-0.00002798,0.00001795,-0.00000381,0.00000524,0.000071
 78,0.00006537,0.00021781,-0.00146097,-0.00090668,-0.00120307,0.0000115
 0,-0.00001924,0.00002786,-0.00002844,-0.00001057,0.00000341,-0.0000877
 3,-0.00007098,0.00000055,0.00010680,0.00004933,-0.00003204,-0.00000790
 ,-0.00001759,-0.00001528,-0.00028589,0.00014214,0.00009052,-0.00007405
 ,0.00003033,-0.00028241,0.00000287,-0.00000002,0.00002047,-0.00000930,
 0.00001151,0.00003687,-0.00003652,-0.00001831,0.00002060,-0.00000792,-
 0.00002100,0.00001454,0.00006293,0.00001615,0.00014031,0.00020928,0.00
 073917,0.00013482,0.00191749,-0.00121193,-0.00049142,-0.00002913,-0.00
 000256,0.00000174,0.00006696,-0.00011203,-0.00015683,0.00007657,-0.000
 01406,0.00003198,-0.00027235,0.00004961,0.00111224,0.00033390,0.000024
 09,0.00029118,0.03746044,-0.17967750,0.09141103\\-0.00001183,-0.000000
 35,0.00001048,0.00001180,-0.00000249,-0.00000038,-0.00001160,-0.000004
 41,0.00000767,0.00002061,0.00001246,0.00000661,-0.00000456,0.00000616,
 -0.00000325,0.00000158,-0.00000248,-0.00000369,0.00000150,0.00001195,0
 .00002036,-0.00000398,0.00000199,0.00000078,-0.00000606,0.00001410,0.0
 0000347,0.00000092,0.00000376,0.00000129,0.00000039,-0.00000044,-0.000
 00211,0.00000004,0.00000899,-0.00000383,-0.00000110,-0.00000377,-0.000
 00380,0.00001592,0.00000134,-0.00000548,0.00000169,0.00000056,0.000001
 09,0.00000468,-0.00000385,-0.00000173,0.00000368,-0.00000012,-0.000003
 70,0.00000031,-0.00000697,0.00000269,0.00000319,0.00000576,0.00000018,
 0.00002168,0.00001363,-0.00001334,-0.00001257,0.00000184,0.00000229,-0
 .00000590,-0.00000415,0.00000089,0.00000422,0.00000608,-0.00000437,0.0
 0001861,-0.00000954,-0.00000282,-0.00000247,-0.00000287,-0.00000079,-0
 .00000272,0.00000290,0.00000144,-0.00001243,0.00000806,0.00000608,-0.0
 0002502,-0.00002074,-0.00003062,-0.00000020,0.00000494,0.00000482,-0.0
 0001837,-0.00001153,0.00000040,0.00000270,0.00000611,0.00000677,-0.000
 00454,-0.00000218,-0.00000564,0.00000814,-0.00000103,0.00000190,-0.000
 00826,0.00000282,0.00000126,-0.00000003,-0.00000127,-0.00000358,-0.000
 00009,-0.00000096,0.00000032,-0.00000069,-0.00000230,-0.00000078,0.000
 00126,-0.00000129,-0.00000176,-0.00000025,-0.00000401,0.00000154,-0.00
 000195,-0.00000055,0.00000240,-0.00000347,-0.00000208,-0.00000131,0.00
 000107,-0.00000089,0.00000055,0.00000271,-0.00000059,-0.00000093,0.000
 00108,-0.00000195,-0.00000101,0.00000219,-0.00000222,-0.00000097,-0.00
 000141,-0.00000361,0.00000069,0.00000354,0.00000197,0.00000473,0.00000
 231,-0.00000309,-0.00000173,0.00000160,0.,-0.00000095,0.00000217,-0.00
 000180,-0.00000237,0.00000048,-0.00000250,0.00000096,-0.00000208,-0.00
 000048,0.00000355,-0.00000021,-0.00000356,0.00000019,0.00000137,-0.000
 00081,0.00000189,-0.00000209,-0.00000199,0.00000301,0.00000279,-0.0000
 0033,-0.00000514,-0.00000011,-0.00000329,-0.00000547,-0.00000074,-0.00
 000280,-0.00000201,0.00000217,-0.00000027,0.00000152,0.00000169,0.0000
 0033,0.00000175,-0.00000045,0.00000141,0.00000066,-0.00000043,-0.00000
 375,0.00000178,0.00000046,0.00000414,0.00000594,-0.00000255,0.00000406
 ,-0.00000127,-0.00000060,-0.00000134,0.00000042,0.00000019,-0.00000069
 ,0.00000250\\\@


 IN THE WOODS WE RETURN TO REASON AND FAITH.

                                 -- EMERSON
 Job cpu time:       7 days 10 hours 53 minutes 35.8 seconds.
 Elapsed time:       0 days 11 hours 13 minutes 24.8 seconds.
 File lengths (MBytes):  RWF=   5033 Int=      0 D2E=      0 Chk=     81 Scr=      1
 Normal termination of Gaussian 16 at Mon Sep 22 23:08:31 2025.
