 Entering Gaussian System, Link 0=g16
 Input=RUAC0156.gjf
 Output=RUAC0156.log
 Initial command:
 /usr/local/g16/l1.exe "/dados_01/scratch/Gau-2224326.inp" -scrdir="/dados_01/scratch/"
 Entering Link 1 = /usr/local/g16/l1.exe PID=   2224327.
  
 Copyright (c) 1988-2017, Gaussian, Inc.  All Rights Reserved.
  
 This is part of the Gaussian(R) 16 program.  It is based on
 the Gaussian(R) 09 system (copyright 2009, Gaussian, Inc.),
 the Gaussian(R) 03 system (copyright 2003, Gaussian, Inc.),
 the Gaussian(R) 98 system (copyright 1998, Gaussian, Inc.),
 the Gaussian(R) 94 system (copyright 1995, Gaussian, Inc.),
 the Gaussian 92(TM) system (copyright 1992, Gaussian, Inc.),
 the Gaussian 90(TM) system (copyright 1990, Gaussian, Inc.),
 the Gaussian 88(TM) system (copyright 1988, Gaussian, Inc.),
 the Gaussian 86(TM) system (copyright 1986, Carnegie Mellon
 University), and the Gaussian 82(TM) system (copyright 1983,
 Carnegie Mellon University). Gaussian is a federally registered
 trademark of Gaussian, Inc.
  
 This software contains proprietary and confidential information,
 including trade secrets, belonging to Gaussian, Inc.
  
 This software is provided under written license and may be
 used, copied, transmitted, or stored only in accord with that
 written license.
  
 The following legend is applicable only to US Government
 contracts under FAR:
  
                    RESTRICTED RIGHTS LEGEND
  
 Use, reproduction and disclosure by the US Government is
 subject to restrictions as set forth in subparagraphs (a)
 and (c) of the Commercial Computer Software - Restricted
 Rights clause in FAR 52.227-19.
  
 Gaussian, Inc.
 340 Quinnipiac St., Bldg. 40, Wallingford CT 06492
  
  
 ---------------------------------------------------------------
 Warning -- This program may not be used in any manner that
 competes with the business of Gaussian, Inc. or will provide
 assistance to any competitor of Gaussian, Inc.  The licensee
 of this program is prohibited from giving any competitor of
 Gaussian, Inc. access to this program.  By using this program,
 the user acknowledges that Gaussian, Inc. is engaged in the
 business of creating and licensing software in the field of
 computational chemistry and represents and warrants to the
 licensee that it is not a competitor of Gaussian, Inc. and that
 it will not use this program in any manner prohibited above.
 ---------------------------------------------------------------
  

 Cite this work as:
 Gaussian 16, Revision B.01,
 M. J. Frisch, G. W. Trucks, H. B. Schlegel, G. E. Scuseria, 
 M. A. Robb, J. R. Cheeseman, G. Scalmani, V. Barone, 
 G. A. Petersson, H. Nakatsuji, X. Li, M. Caricato, A. V. Marenich, 
 J. Bloino, B. G. Janesko, R. Gomperts, B. Mennucci, H. P. Hratchian, 
 J. V. Ortiz, A. F. Izmaylov, J. L. Sonnenberg, D. Williams-Young, 
 F. Ding, F. Lipparini, F. Egidi, J. Goings, B. Peng, A. Petrone, 
 T. Henderson, D. Ranasinghe, V. G. Zakrzewski, J. Gao, N. Rega, 
 G. Zheng, W. Liang, M. Hada, M. Ehara, K. Toyota, R. Fukuda, 
 J. Hasegawa, M. Ishida, T. Nakajima, Y. Honda, O. Kitao, H. Nakai, 
 T. Vreven, K. Throssell, J. A. Montgomery, Jr., J. E. Peralta, 
 F. Ogliaro, M. J. Bearpark, J. J. Heyd, E. N. Brothers, K. N. Kudin, 
 V. N. Staroverov, T. A. Keith, R. Kobayashi, J. Normand, 
 K. Raghavachari, A. P. Rendell, J. C. Burant, S. S. Iyengar, 
 J. Tomasi, M. Cossi, J. M. Millam, M. Klene, C. Adamo, R. Cammi, 
 J. W. Ochterski, R. L. Martin, K. Morokuma, O. Farkas, 
 J. B. Foresman, and D. J. Fox, Gaussian, Inc., Wallingford CT, 2016.
 
 ******************************************
 Gaussian 16:  ES64L-G16RevB.01 20-Dec-2017
                22-Sep-2025 
 ******************************************
 %nprocs=16
 Will use up to   16 processors via shared memory.
 %mem=40GB
 %chk=RUAC0156.chk
 ----------------------------------------------------------------------
 # opt freq=noraman M08HX/6-311++G** scf=xqc Empiricaldispersion=pfd In
 t(Grid=ultraFine)
 ----------------------------------------------------------------------
 1/18=20,19=15,26=4,38=1/1,3;
 2/9=110,12=2,17=6,18=5,40=1/2;
 3/5=4,6=6,7=1111,11=2,25=1,30=1,71=1,74=-74,75=-5,124=11/1,2,3;
 4//1;
 5/5=2,8=3,13=1,38=5/2,8;
 6/7=2,8=2,9=2,10=2,28=1/1;
 7//1,2,3,16;
 1/18=20,19=15,26=4/3(2);
 2/9=110/2;
 99//99;
 2/9=110/2;
 3/5=4,6=6,7=1111,11=2,25=1,30=1,71=1,74=-74,75=-5,124=11/1,2,3;
 4/5=5,16=3,69=1/1;
 5/5=2,8=3,13=1,38=5/2,8;
 7//1,2,3,16;
 1/18=20,19=15,26=4/3(-5);
 2/9=110/2;
 6/7=2,8=2,9=2,10=2,19=2,28=1/1;
 99/9=1/99;
 --------
 RUAC0156
 --------
 Symbolic Z-matrix:
 Charge =  0 Multiplicity = 1
 O                    -0.2292   -2.6621   -0.0004 
 O                     0.2292    2.6621   -0.0013 
 O                    -2.7966   -2.5022    0. 
 O                     2.7963    2.5021    0.0007 
 O                    -4.9878   -0.8969    0.0015 
 O                     4.9878    0.897     0.0014 
 O                     4.7103   -1.8525    0.0003 
 O                    -4.7104    1.8524    0.0008 
 C                    -1.3344   -0.5722   -0.0004 
 C                     1.3346    0.5722   -0.0004 
 C                    -1.1997    0.8177   -0.0007 
 C                     1.1998   -0.8178   -0.0007 
 C                    -0.1395   -1.4408   -0.001 
 C                     0.1396    1.4406   -0.0011 
 C                    -2.6097   -1.1501    0.0001 
 C                     2.6096    1.1501    0.0004 
 C                    -2.3402    1.6298   -0.0005 
 C                     2.3403   -1.6297   -0.0004 
 C                    -3.7436   -0.3372    0.0006 
 C                     3.7435    0.3373    0.0006 
 C                     3.6092   -1.0497    0.0001 
 C                    -3.6091    1.0498    0.0002 
 H                    -2.2491    2.7133   -0.0007 
 H                     2.2572   -2.7138   -0.0006 
 H                    -1.9485   -2.97     -0.001 
 H                     1.9483    2.9699    0.0023 
 H                    -4.8887   -1.8648    0.0016 
 H                     4.8887    1.8649    0.0017 
 H                     5.5016   -1.2863    0.0008 
 H                    -4.4261    2.7825    0.0005 
 

 GradGradGradGradGradGradGradGradGradGradGradGradGradGradGradGradGradGrad
 Berny optimization.
 Initialization pass.
                           ----------------------------
                           !    Initial Parameters    !
                           ! (Angstroms and Degrees)  !
 --------------------------                            --------------------------
 ! Name  Definition              Value          Derivative Info.                !
 --------------------------------------------------------------------------------
 ! R1    R(1,13)                 1.2246         estimate D2E/DX2                !
 ! R2    R(2,14)                 1.2248         estimate D2E/DX2                !
 ! R3    R(3,15)                 1.365          estimate D2E/DX2                !
 ! R4    R(3,25)                 0.9686         estimate D2E/DX2                !
 ! R5    R(4,16)                 1.3648         estimate D2E/DX2                !
 ! R6    R(4,26)                 0.9685         estimate D2E/DX2                !
 ! R7    R(5,19)                 1.3643         estimate D2E/DX2                !
 ! R8    R(5,27)                 0.973          estimate D2E/DX2                !
 ! R9    R(6,20)                 1.3644         estimate D2E/DX2                !
 ! R10   R(6,28)                 0.973          estimate D2E/DX2                !
 ! R11   R(7,21)                 1.3627         estimate D2E/DX2                !
 ! R12   R(7,29)                 0.973          estimate D2E/DX2                !
 ! R13   R(8,22)                 1.3627         estimate D2E/DX2                !
 ! R14   R(8,30)                 0.9726         estimate D2E/DX2                !
 ! R15   R(9,11)                 1.3964         estimate D2E/DX2                !
 ! R16   R(9,13)                 1.4772         estimate D2E/DX2                !
 ! R17   R(9,15)                 1.4001         estimate D2E/DX2                !
 ! R18   R(10,12)                1.3965         estimate D2E/DX2                !
 ! R19   R(10,14)                1.4772         estimate D2E/DX2                !
 ! R20   R(10,16)                1.3999         estimate D2E/DX2                !
 ! R21   R(11,14)                1.4771         estimate D2E/DX2                !
 ! R22   R(11,17)                1.4001         estimate D2E/DX2                !
 ! R23   R(12,13)                1.4771         estimate D2E/DX2                !
 ! R24   R(12,18)                1.4            estimate D2E/DX2                !
 ! R25   R(15,19)                1.3952         estimate D2E/DX2                !
 ! R26   R(16,20)                1.3951         estimate D2E/DX2                !
 ! R27   R(17,22)                1.3952         estimate D2E/DX2                !
 ! R28   R(17,23)                1.0873         estimate D2E/DX2                !
 ! R29   R(18,21)                1.3952         estimate D2E/DX2                !
 ! R30   R(18,24)                1.0873         estimate D2E/DX2                !
 ! R31   R(19,22)                1.3935         estimate D2E/DX2                !
 ! R32   R(20,21)                1.3935         estimate D2E/DX2                !
 ! A1    A(15,3,25)            111.0104         estimate D2E/DX2                !
 ! A2    A(16,4,26)            111.021          estimate D2E/DX2                !
 ! A3    A(19,5,27)            108.3745         estimate D2E/DX2                !
 ! A4    A(20,6,28)            108.3728         estimate D2E/DX2                !
 ! A5    A(21,7,29)            108.3197         estimate D2E/DX2                !
 ! A6    A(22,8,30)            109.087          estimate D2E/DX2                !
 ! A7    A(11,9,13)            120.4788         estimate D2E/DX2                !
 ! A8    A(11,9,15)            119.913          estimate D2E/DX2                !
 ! A9    A(13,9,15)            119.6082         estimate D2E/DX2                !
 ! A10   A(12,10,14)           120.4666         estimate D2E/DX2                !
 ! A11   A(12,10,16)           119.9218         estimate D2E/DX2                !
 ! A12   A(14,10,16)           119.6117         estimate D2E/DX2                !
 ! A13   A(9,11,14)            120.4783         estimate D2E/DX2                !
 ! A14   A(9,11,17)            119.9176         estimate D2E/DX2                !
 ! A15   A(14,11,17)           119.6042         estimate D2E/DX2                !
 ! A16   A(10,12,13)           120.4855         estimate D2E/DX2                !
 ! A17   A(10,12,18)           119.9072         estimate D2E/DX2                !
 ! A18   A(13,12,18)           119.6073         estimate D2E/DX2                !
 ! A19   A(1,13,9)             121.8136         estimate D2E/DX2                !
 ! A20   A(1,13,12)            119.147          estimate D2E/DX2                !
 ! A21   A(9,13,12)            119.0394         estimate D2E/DX2                !
 ! A22   A(2,14,10)            121.8104         estimate D2E/DX2                !
 ! A23   A(2,14,11)            119.1381         estimate D2E/DX2                !
 ! A24   A(10,14,11)           119.0514         estimate D2E/DX2                !
 ! A25   A(3,15,9)             122.2477         estimate D2E/DX2                !
 ! A26   A(3,15,19)            117.7669         estimate D2E/DX2                !
 ! A27   A(9,15,19)            119.9855         estimate D2E/DX2                !
 ! A28   A(4,16,10)            122.245          estimate D2E/DX2                !
 ! A29   A(4,16,20)            117.7713         estimate D2E/DX2                !
 ! A30   A(10,16,20)           119.9837         estimate D2E/DX2                !
 ! A31   A(11,17,22)           119.9824         estimate D2E/DX2                !
 ! A32   A(11,17,23)           120.6469         estimate D2E/DX2                !
 ! A33   A(22,17,23)           119.3707         estimate D2E/DX2                !
 ! A34   A(12,18,21)           119.9891         estimate D2E/DX2                !
 ! A35   A(12,18,24)           121.063          estimate D2E/DX2                !
 ! A36   A(21,18,24)           118.948          estimate D2E/DX2                !
 ! A37   A(5,19,15)            120.1426         estimate D2E/DX2                !
 ! A38   A(5,19,22)            119.7592         estimate D2E/DX2                !
 ! A39   A(15,19,22)           120.0982         estimate D2E/DX2                !
 ! A40   A(6,20,16)            120.1476         estimate D2E/DX2                !
 ! A41   A(6,20,21)            119.7493         estimate D2E/DX2                !
 ! A42   A(16,20,21)           120.1031         estimate D2E/DX2                !
 ! A43   A(7,21,18)            119.34           estimate D2E/DX2                !
 ! A44   A(7,21,20)            120.5648         estimate D2E/DX2                !
 ! A45   A(18,21,20)           120.0952         estimate D2E/DX2                !
 ! A46   A(8,22,17)            119.3518         estimate D2E/DX2                !
 ! A47   A(8,22,19)            120.5449         estimate D2E/DX2                !
 ! A48   A(17,22,19)           120.1034         estimate D2E/DX2                !
 ! D1    D(25,3,15,9)           -0.0349         estimate D2E/DX2                !
 ! D2    D(25,3,15,19)         179.9592         estimate D2E/DX2                !
 ! D3    D(26,4,16,10)           0.1273         estimate D2E/DX2                !
 ! D4    D(26,4,16,20)        -179.8875         estimate D2E/DX2                !
 ! D5    D(27,5,19,15)          -0.0046         estimate D2E/DX2                !
 ! D6    D(27,5,19,22)         179.9963         estimate D2E/DX2                !
 ! D7    D(28,6,20,16)          -0.0026         estimate D2E/DX2                !
 ! D8    D(28,6,20,21)        -179.997          estimate D2E/DX2                !
 ! D9    D(29,7,21,18)        -179.9906         estimate D2E/DX2                !
 ! D10   D(29,7,21,20)          -0.0006         estimate D2E/DX2                !
 ! D11   D(30,8,22,17)           0.0086         estimate D2E/DX2                !
 ! D12   D(30,8,22,19)         179.9934         estimate D2E/DX2                !
 ! D13   D(13,9,11,14)          -0.0235         estimate D2E/DX2                !
 ! D14   D(13,9,11,17)         179.9823         estimate D2E/DX2                !
 ! D15   D(15,9,11,14)         179.9942         estimate D2E/DX2                !
 ! D16   D(15,9,11,17)           0.0            estimate D2E/DX2                !
 ! D17   D(11,9,13,1)          179.9805         estimate D2E/DX2                !
 ! D18   D(11,9,13,12)           0.0542         estimate D2E/DX2                !
 ! D19   D(15,9,13,1)           -0.0372         estimate D2E/DX2                !
 ! D20   D(15,9,13,12)        -179.9635         estimate D2E/DX2                !
 ! D21   D(11,9,15,3)          179.9797         estimate D2E/DX2                !
 ! D22   D(11,9,15,19)          -0.0143         estimate D2E/DX2                !
 ! D23   D(13,9,15,3)           -0.0027         estimate D2E/DX2                !
 ! D24   D(13,9,15,19)        -179.9968         estimate D2E/DX2                !
 ! D25   D(14,10,12,13)         -0.0325         estimate D2E/DX2                !
 ! D26   D(14,10,12,18)        179.9825         estimate D2E/DX2                !
 ! D27   D(16,10,12,13)        179.9756         estimate D2E/DX2                !
 ! D28   D(16,10,12,18)         -0.0095         estimate D2E/DX2                !
 ! D29   D(12,10,14,2)        -179.9756         estimate D2E/DX2                !
 ! D30   D(12,10,14,11)          0.0631         estimate D2E/DX2                !
 ! D31   D(16,10,14,2)           0.0164         estimate D2E/DX2                !
 ! D32   D(16,10,14,11)       -179.9449         estimate D2E/DX2                !
 ! D33   D(12,10,16,4)         179.9989         estimate D2E/DX2                !
 ! D34   D(12,10,16,20)          0.0141         estimate D2E/DX2                !
 ! D35   D(14,10,16,4)           0.0069         estimate D2E/DX2                !
 ! D36   D(14,10,16,20)       -179.978          estimate D2E/DX2                !
 ! D37   D(9,11,14,2)         -179.9969         estimate D2E/DX2                !
 ! D38   D(9,11,14,10)          -0.0345         estimate D2E/DX2                !
 ! D39   D(17,11,14,2)          -0.0027         estimate D2E/DX2                !
 ! D40   D(17,11,14,10)        179.9597         estimate D2E/DX2                !
 ! D41   D(9,11,17,22)           0.0096         estimate D2E/DX2                !
 ! D42   D(9,11,17,23)         179.9982         estimate D2E/DX2                !
 ! D43   D(14,11,17,22)       -179.9847         estimate D2E/DX2                !
 ! D44   D(14,11,17,23)          0.0039         estimate D2E/DX2                !
 ! D45   D(10,12,13,1)        -179.9539         estimate D2E/DX2                !
 ! D46   D(10,12,13,9)          -0.0256         estimate D2E/DX2                !
 ! D47   D(18,12,13,1)           0.0311         estimate D2E/DX2                !
 ! D48   D(18,12,13,9)         179.9594         estimate D2E/DX2                !
 ! D49   D(10,12,18,21)         -0.0046         estimate D2E/DX2                !
 ! D50   D(10,12,18,24)        179.9984         estimate D2E/DX2                !
 ! D51   D(13,12,18,21)       -179.9898         estimate D2E/DX2                !
 ! D52   D(13,12,18,24)          0.0133         estimate D2E/DX2                !
 ! D53   D(3,15,19,5)            0.0257         estimate D2E/DX2                !
 ! D54   D(3,15,19,22)        -179.9752         estimate D2E/DX2                !
 ! D55   D(9,15,19,5)         -179.98           estimate D2E/DX2                !
 ! D56   D(9,15,19,22)           0.0191         estimate D2E/DX2                !
 ! D57   D(4,16,20,6)            0.0155         estimate D2E/DX2                !
 ! D58   D(4,16,20,21)        -179.99           estimate D2E/DX2                !
 ! D59   D(10,16,20,6)        -179.999          estimate D2E/DX2                !
 ! D60   D(10,16,20,21)         -0.0045         estimate D2E/DX2                !
 ! D61   D(11,17,22,8)         179.9801         estimate D2E/DX2                !
 ! D62   D(11,17,22,19)         -0.0048         estimate D2E/DX2                !
 ! D63   D(23,17,22,8)          -0.0087         estimate D2E/DX2                !
 ! D64   D(23,17,22,19)       -179.9936         estimate D2E/DX2                !
 ! D65   D(12,18,21,7)        -179.9958         estimate D2E/DX2                !
 ! D66   D(12,18,21,20)          0.0142         estimate D2E/DX2                !
 ! D67   D(24,18,21,7)           0.0012         estimate D2E/DX2                !
 ! D68   D(24,18,21,20)       -179.9888         estimate D2E/DX2                !
 ! D69   D(5,19,22,8)            0.0049         estimate D2E/DX2                !
 ! D70   D(5,19,22,17)         179.9896         estimate D2E/DX2                !
 ! D71   D(15,19,22,8)        -179.9943         estimate D2E/DX2                !
 ! D72   D(15,19,22,17)         -0.0096         estimate D2E/DX2                !
 ! D73   D(6,20,21,7)           -0.005          estimate D2E/DX2                !
 ! D74   D(6,20,21,18)         179.9849         estimate D2E/DX2                !
 ! D75   D(16,20,21,7)        -179.9995         estimate D2E/DX2                !
 ! D76   D(16,20,21,18)         -0.0096         estimate D2E/DX2                !
 --------------------------------------------------------------------------------
 Trust Radius=3.00D-01 FncErr=1.00D-07 GrdErr=1.00D-06 EigMax=2.50D+02 EigMin=1.00D-04
 Number of steps in this run=    166 maximum allowed number of steps=    180.
 GradGradGradGradGradGradGradGradGradGradGradGradGradGradGradGradGradGrad

                          Input orientation:                          
 ---------------------------------------------------------------------
 Center     Atomic      Atomic             Coordinates (Angstroms)
 Number     Number       Type             X           Y           Z
 ---------------------------------------------------------------------
      1          8           0       -0.229200   -2.662100   -0.000400
      2          8           0        0.229200    2.662100   -0.001300
      3          8           0       -2.796600   -2.502200    0.000000
      4          8           0        2.796300    2.502100    0.000700
      5          8           0       -4.987800   -0.896900    0.001500
      6          8           0        4.987800    0.897000    0.001400
      7          8           0        4.710300   -1.852500    0.000300
      8          8           0       -4.710400    1.852400    0.000800
      9          6           0       -1.334400   -0.572200   -0.000400
     10          6           0        1.334600    0.572200   -0.000400
     11          6           0       -1.199700    0.817700   -0.000700
     12          6           0        1.199800   -0.817800   -0.000700
     13          6           0       -0.139500   -1.440800   -0.001000
     14          6           0        0.139600    1.440600   -0.001100
     15          6           0       -2.609700   -1.150100    0.000100
     16          6           0        2.609600    1.150100    0.000400
     17          6           0       -2.340200    1.629800   -0.000500
     18          6           0        2.340300   -1.629700   -0.000400
     19          6           0       -3.743600   -0.337200    0.000600
     20          6           0        3.743500    0.337300    0.000600
     21          6           0        3.609200   -1.049700    0.000100
     22          6           0       -3.609100    1.049800    0.000200
     23          1           0       -2.249100    2.713300   -0.000700
     24          1           0        2.257200   -2.713800   -0.000600
     25          1           0       -1.948500   -2.970000   -0.001000
     26          1           0        1.948300    2.969900    0.002300
     27          1           0       -4.888700   -1.864800    0.001600
     28          1           0        4.888700    1.864900    0.001700
     29          1           0        5.501600   -1.286300    0.000800
     30          1           0       -4.426100    2.782500    0.000500
 ---------------------------------------------------------------------
                    Distance matrix (angstroms):
                    1          2          3          4          5
     1  O    0.000000
     2  O    5.343897   0.000000
     3  O    2.572375   5.985437   0.000000
     4  O    5.985200   2.572082   7.504902   0.000000
     5  O    5.075452   6.315345   2.716311   8.493846   0.000000
     6  O    6.315401   5.075417   8.494201   2.716435  10.135614
     7  O    5.005408   6.360965   7.534962   4.756673   9.745066
     8  O    6.360964   5.005524   4.756593   7.534763   2.763259
     9  C    2.364138   3.592428   2.421349   5.149175   3.667801
    10  C    3.592515   2.364232   5.149636   2.420967   6.490840
    11  C    3.612600   2.333145   3.683996   4.336499   4.158072
    12  C    2.333127   3.612723   4.336867   3.683823   6.188106
    13  C    1.224590   4.119433   2.861250   4.915830   4.878714
    14  C    4.119243   1.224782   4.915989   2.860916   5.635082
    15  C    2.820093   4.753128   1.364956   6.524063   2.391542
    16  C    4.753068   2.820009   6.524285   1.364830   7.868335
    17  C    4.782962   2.769018   4.157129   5.210042   3.659782
    18  C    2.769148   4.782917   5.210470   4.156887   7.364649
    19  C    4.213807   4.977845   2.363056   7.129651   1.364294
    20  C    4.977825   4.213669   7.129914   2.362953   8.818098
    21  C    4.163310   5.020146   6.568412   3.643637   8.598358
    22  C    5.020152   4.163179   3.643743   6.567977   2.385468
    23  H    5.742379   2.478829   5.244158   5.049819   4.531449
    24  H    2.486937   5.745701   5.058228   5.243686   7.469348
    25  H    1.746653   6.038454   0.968562   7.242721   3.679007
    26  H    6.038289   1.746442   7.242787   0.968475   7.941135
    27  H    4.727222   6.832696   2.187045   8.839063   0.972960
    28  H    6.832762   4.727206   8.839423   2.187273  10.255379
    29  H    5.893632   6.586962   8.386807   4.655172  10.496625
    30  H    6.874419   4.656857   5.530219   7.227841   3.722028
                    6          7          8          9         10
     6  O    0.000000
     7  O    2.763468   0.000000
     8  O    9.745146  10.123037   0.000000
     9  C    6.490668   6.178800   4.156448   0.000000
    10  C    3.667611   4.156263   6.179073   2.903999   0.000000
    11  C    6.188008   6.485219   3.660003   1.396412   2.546163
    12  C    4.158063   3.659811   6.485402   2.546073   1.396521
    13  C    5.635115   4.867243   5.633675   1.477245   2.495023
    14  C    4.878581   5.633454   4.867451   2.494803   1.477208
    15  C    7.868458   7.353623   3.664416   1.400128   4.303931
    16  C    2.391630   3.664498   7.353613   4.303656   1.399855
    17  C    7.364549   7.863585   2.380630   2.420834   3.823960
    18  C    3.659709   2.380450   7.863675   3.823837   2.420702
    19  C    8.818197   8.588630   2.393543   2.420634   5.158985
    20  C    1.364385   2.393726   8.588594   5.158707   2.420326
    21  C    2.385410   1.362685   8.811239   4.966607   2.793629
    22  C    8.598258   8.811116   1.362728   2.793769   4.966716
    23  H    7.461345   8.323448   2.607518   3.410453   4.174592
    24  H    4.527036   2.599911   8.330524   4.181631   3.413061
    25  H    7.941407   6.751920   5.557305   2.475190   4.829692
    26  H    3.679059   5.557355   6.751822   4.829348   2.474995
    27  H   10.255379   9.599008   3.721474   3.782045   6.683445
    28  H    0.972960   3.721679   9.599108   6.683295   3.781892
    29  H    2.242942   0.973005  10.683463   6.873197   4.562665
    30  H    9.600866  10.244854   0.972580   4.562085   6.170178
                   11         12         13         14         15
    11  C    0.000000
    12  C    2.903870   0.000000
    13  C    2.494964   1.477110   0.000000
    14  C    1.477068   2.494874   2.894886   0.000000
    15  C    2.420813   3.823966   2.487247   3.777615   0.000000
    16  C    3.823775   2.420778   3.777607   2.487025   5.703684
    17  C    1.400088   4.303759   3.777786   2.487007   2.792933
    18  C    4.303646   1.399972   2.486984   3.777542   4.973180
    19  C    2.793783   4.966707   3.769280   4.270810   1.395183
    20  C    4.966489   2.793683   4.270753   3.769001   6.524991
    21  C    5.158750   2.420534   3.769047   4.270798   6.219710
    22  C    2.420554   5.158823   4.270973   3.769016   2.416270
    23  H    2.166689   4.935948   4.659073   2.706594   3.880192
    24  H    4.941827   2.170924   2.713798   4.662968   5.111934
    25  H    3.861007   3.813628   2.368741   4.879913   1.936291
    26  H    3.813381   3.860950   4.879876   2.368579   6.144084
    27  H    4.561199   6.177867   4.768090   6.017431   2.388439
    28  H    6.177803   4.561235   6.017512   4.768017   8.081846
    29  H    7.023834   4.327237   5.643216   6.015566   8.112443
    30  H    3.777578   6.679290   6.017575   4.758814   4.331819
                   16         17         18         19         20
    16  C    0.000000
    17  C    4.972990   0.000000
    18  C    2.792814   5.703632   0.000000
    19  C    6.524968   2.416324   6.219678   0.000000
    20  C    1.395125   6.219483   2.416208   7.517421   0.000000
    21  C    2.416262   6.524958   1.395173   7.387241   1.393487
    22  C    6.219509   1.395173   6.524958   1.393506   7.387042
    23  H    5.103975   1.087323   6.318563   3.396922   6.446443
    24  H    3.879937   6.324788   1.087280   6.454288   3.393862
    25  H    6.144225   4.616448   4.493352   3.186538   6.583092
    26  H    1.936232   4.493007   4.616275   6.582905   3.186429
    27  H    8.081716   4.325169   7.232822   1.909140   8.908654
    28  H    2.388564   7.232722   4.325110   8.908751   1.909200
    29  H    3.781496   8.366449   3.179897   9.293789   2.393114
    30  H    7.222590   2.383212   8.077851   3.193483   8.527682
                   21         22         23         24         25
    21  C    0.000000
    22  C    7.517430   0.000000
    23  H    6.962747   2.148682   0.000000
    24  H    2.144093   6.969804   7.054088   0.000000
    25  H    5.880101   4.349297   5.691244   4.213496   0.000000
    26  H    4.349227   5.879752   4.205237   5.692089   7.104046
    27  H    8.536902   3.183123   5.284552   7.196158   3.141059
    28  H    3.183083   8.536802   7.188044   5.281031   8.373982
    29  H    1.907133   9.405436   8.721821   3.544558   7.637987
    30  H    8.902348   1.915656   2.178100   8.653081   6.263367
                   26         27         28         29         30
    26  H    0.000000
    27  H    8.373703   0.000000
    28  H    3.141175  10.464617   0.000000
    29  H    5.544473  10.406392   3.210251   0.000000
    30  H    6.377154   4.670267   9.359887  10.729136   0.000000
 Stoichiometry    C14H8O8
 Framework group  C1[X(C14H8O8)]
 Deg. of freedom    84
 Full point group                 C1      NOp   1
 Largest Abelian subgroup         C1      NOp   1
 Largest concise Abelian subgroup C1      NOp   1
                         Standard orientation:                         
 ---------------------------------------------------------------------
 Center     Atomic      Atomic             Coordinates (Angstroms)
 Number     Number       Type             X           Y           Z
 ---------------------------------------------------------------------
      1          8           0       -0.264921   -2.668982   -0.000460
      2          8           0        0.250836    2.649968   -0.001360
      3          8           0       -2.830449   -2.481420   -0.000060
      4          8           0        2.816063    2.462309    0.000640
      5          8           0       -5.004220   -0.852597    0.001440
      6          8           0        4.990136    0.833682    0.001340
      7          8           0        4.683018   -1.912667    0.000240
      8          8           0       -4.697204    1.893554    0.000740
      9          6           0       -1.347532   -0.567292   -0.000460
     10          6           0        1.333647    0.548275   -0.000460
     11          6           0       -1.197860    0.821076   -0.000760
     12          6           0        1.183873   -0.840191   -0.000760
     13          6           0       -0.162063   -1.448720   -0.001060
     14          6           0        0.148076    1.429504   -0.001160
     15          6           0       -2.628987   -1.131413    0.000040
     16          6           0        2.614802    1.112400    0.000340
     17          6           0       -2.329541    1.645421   -0.000560
     18          6           0        2.315557   -1.664336   -0.000460
     19          6           0       -3.754060   -0.306339    0.000540
     20          6           0        3.739875    0.287426    0.000540
     21          6           0        3.590634   -1.098046    0.000040
     22          6           0       -3.604618    1.079131    0.000140
     23          1           0       -2.226768    2.727876   -0.000760
     24          1           0        2.220777   -2.747478   -0.000660
     25          1           0       -1.987440   -2.958334   -0.001060
     26          1           0        1.973154    2.939221    0.002240
     27          1           0       -4.915557   -1.821509    0.001540
     28          1           0        4.901473    1.802594    0.001640
     29          1           0        5.480374   -1.355029    0.000740
     30          1           0       -4.402896    2.820536    0.000440
 ---------------------------------------------------------------------
 Rotational constants (GHZ):           0.6241693           0.1745291           0.1363916
 Standard basis: 6-311++G(d,p) (5D, 7F)
 There are   562 symmetry adapted cartesian basis functions of A   symmetry.
 There are   540 symmetry adapted basis functions of A   symmetry.
   540 basis functions,   864 primitive gaussians,   562 cartesian basis functions
    78 alpha electrons       78 beta electrons
       nuclear repulsion energy      1773.1644710650 Hartrees.
 NAtoms=   30 NActive=   30 NUniq=   30 SFac= 1.00D+00 NAtFMM=   60 NAOKFM=F Big=F
 Integral buffers will be    131072 words long.
 Raffenetti 2 integral format.
 Two-electron integral symmetry is turned on.
 R6APFD:  NTU= -4 IXU= 1 FactS= 1.050
 Nuclear repulsion after empirical dispersion term =     1773.1350977173 Hartrees.
 One-electron integrals computed using PRISM.
 NBasis=   540 RedAO= T EigKep=  1.28D-06  NBF=   540
 NBsUse=   532 1.00D-06 EigRej=  7.71D-07 NBFU=   532
 ExpMin= 3.60D-02 ExpMax= 8.59D+03 ExpMxC= 1.30D+03 IAcc=3 IRadAn=         5 AccDes= 0.00D+00
 Harris functional with IExCor= 1009 and IRadAn=       5 diagonalized for initial guess.
 HarFok:  IExCor= 1009 AccDes= 0.00D+00 IRadAn=         5 IDoV= 1 UseB2=F ITyADJ=14
 ICtDFT=  3500011 ScaDFX=  1.000000  1.000000  1.000000  1.000000
 FoFCou: FMM=F IPFlag=           0 FMFlag=      100000 FMFlg1=           0
         NFxFlg=           0 DoJE=T BraDBF=F KetDBF=T FulRan=T
         wScrn=  0.000000 ICntrl=       500 IOpCl=  0 I1Cent=   200000004 NGrid=           0
         NMat0=    1 NMatS0=      1 NMatT0=    0 NMatD0=    1 NMtDS0=    0 NMtDT0=    0
 Petite list used in FoFCou.
 Requested convergence on RMS density matrix=1.00D-08 within  32 cycles.
 Requested convergence on MAX density matrix=1.00D-06.
 Requested convergence on             energy=1.00D-06.
 No special actions if energy rises.
 SCF Done:  E(RM08HX) =  -1140.09920192     A.U. after   16 cycles
            NFock= 16  Conv=0.56D-08     -V/T= 2.0038
 QCSCF skips out because SCF is already converged.

 **********************************************************************

            Population analysis using the SCF Density.

 **********************************************************************

 Orbital symmetries:
       Occupied  (A) (A) (A) (A) (A) (A) (A) (A) (A) (A) (A) (A)
                 (A) (A) (A) (A) (A) (A) (A) (A) (A) (A) (A) (A)
                 (A) (A) (A) (A) (A) (A) (A) (A) (A) (A) (A) (A)
                 (A) (A) (A) (A) (A) (A) (A) (A) (A) (A) (A) (A)
                 (A) (A) (A) (A) (A) (A) (A) (A) (A) (A) (A) (A)
                 (A) (A) (A) (A) (A) (A) (A) (A) (A) (A) (A) (A)
                 (A) (A) (A) (A) (A) (A)
       Virtual   (A) (A) (A) (A) (A) (A) (A) (A) (A) (A) (A) (A)
                 (A) (A) (A) (A) (A) (A) (A) (A) (A) (A) (A) (A)
                 (A) (A) (A) (A) (A) (A) (A) (A) (A) (A) (A) (A)
                 (A) (A) (A) (A) (A) (A) (A) (A) (A) (A) (A) (A)
                 (A) (A) (A) (A) (A) (A) (A) (A) (A) (A) (A) (A)
                 (A) (A) (A) (A) (A) (A) (A) (A) (A) (A) (A) (A)
                 (A) (A) (A) (A) (A) (A) (A) (A) (A) (A) (A) (A)
                 (A) (A) (A) (A) (A) (A) (A) (A) (A) (A) (A) (A)
                 (A) (A) (A) (A) (A) (A) (A) (A) (A) (A) (A) (A)
                 (A) (A) (A) (A) (A) (A) (A) (A) (A) (A) (A) (A)
                 (A) (A) (A) (A) (A) (A) (A) (A) (A) (A) (A) (A)
                 (A) (A) (A) (A) (A) (A) (A) (A) (A) (A) (A) (A)
                 (A) (A) (A) (A) (A) (A) (A) (A) (A) (A) (A) (A)
                 (A) (A) (A) (A) (A) (A) (A) (A) (A) (A) (A) (A)
                 (A) (A) (A) (A) (A) (A) (A) (A) (A) (A) (A) (A)
                 (A) (A) (A) (A) (A) (A) (A) (A) (A) (A) (A) (A)
                 (A) (A) (A) (A) (A) (A) (A) (A) (A) (A) (A) (A)
                 (A) (A) (A) (A) (A) (A) (A) (A) (A) (A) (A) (A)
                 (A) (A) (A) (A) (A) (A) (A) (A) (A) (A) (A) (A)
                 (A) (A) (A) (A) (A) (A) (A) (A) (A) (A) (A) (A)
                 (A) (A) (A) (A) (A) (A) (A) (A) (A) (A) (A) (A)
                 (A) (A) (A) (A) (A) (A) (A) (A) (A) (A) (A) (A)
                 (A) (A) (A) (A) (A) (A) (A) (A) (A) (A) (A) (A)
                 (A) (A) (A) (A) (A) (A) (A) (A) (A) (A) (A) (A)
                 (A) (A) (A) (A) (A) (A) (A) (A) (A) (A) (A) (A)
                 (A) (A) (A) (A) (A) (A) (A) (A) (A) (A) (A) (A)
                 (A) (A) (A) (A) (A) (A) (A) (A) (A) (A) (A) (A)
                 (A) (A) (A) (A) (A) (A) (A) (A) (A) (A) (A) (A)
                 (A) (A) (A) (A) (A) (A) (A) (A) (A) (A) (A) (A)
                 (A) (A) (A) (A) (A) (A) (A) (A) (A) (A) (A) (A)
                 (A) (A) (A) (A) (A) (A) (A) (A) (A) (A) (A) (A)
                 (A) (A) (A) (A) (A) (A) (A) (A) (A) (A) (A) (A)
                 (A) (A) (A) (A) (A) (A) (A) (A) (A) (A) (A) (A)
                 (A) (A) (A) (A) (A) (A) (A) (A) (A) (A) (A) (A)
                 (A) (A) (A) (A) (A) (A) (A) (A) (A) (A) (A) (A)
                 (A) (A) (A) (A) (A) (A) (A) (A) (A) (A) (A) (A)
                 (A) (A) (A) (A) (A) (A) (A) (A) (A) (A) (A) (A)
                 (A) (A) (A) (A) (A) (A) (A) (A) (A) (A)
 The electronic state is 1-A.
 Alpha  occ. eigenvalues --  -19.67603 -19.66670 -19.66646 -19.66213 -19.65847
 Alpha  occ. eigenvalues --  -19.65845 -19.63367 -19.63215 -10.66073 -10.65933
 Alpha  occ. eigenvalues --  -10.63911 -10.63655 -10.63421 -10.63392 -10.62989
 Alpha  occ. eigenvalues --  -10.62716 -10.58023 -10.57974 -10.57611 -10.57578
 Alpha  occ. eigenvalues --  -10.56820 -10.56414  -1.23565  -1.22599  -1.21662
 Alpha  occ. eigenvalues --   -1.21284  -1.20147  -1.19861  -1.18753  -1.18124
 Alpha  occ. eigenvalues --   -1.01647  -0.99821  -0.92515  -0.88916  -0.88135
 Alpha  occ. eigenvalues --   -0.88030  -0.80141  -0.79048  -0.76742  -0.76122
 Alpha  occ. eigenvalues --   -0.72089  -0.68822  -0.67980  -0.66602  -0.65665
 Alpha  occ. eigenvalues --   -0.64799  -0.62867  -0.61534  -0.60575  -0.59219
 Alpha  occ. eigenvalues --   -0.57222  -0.56957  -0.56176  -0.55645  -0.55139
 Alpha  occ. eigenvalues --   -0.53275  -0.52697  -0.52412  -0.51684  -0.51624
 Alpha  occ. eigenvalues --   -0.49818  -0.49735  -0.48926  -0.48061  -0.47714
 Alpha  occ. eigenvalues --   -0.47407  -0.47081  -0.46764  -0.46208  -0.45817
 Alpha  occ. eigenvalues --   -0.41861  -0.41350  -0.38018  -0.36031  -0.32051
 Alpha  occ. eigenvalues --   -0.31280  -0.30327  -0.29703
 Alpha virt. eigenvalues --   -0.09765  -0.04229  -0.03758  -0.03318  -0.02128
 Alpha virt. eigenvalues --   -0.01113  -0.00738   0.00091   0.00333   0.00884
 Alpha virt. eigenvalues --    0.00964   0.01594   0.01977   0.02900   0.03312
 Alpha virt. eigenvalues --    0.03519   0.03623   0.05505   0.05575   0.05825
 Alpha virt. eigenvalues --    0.05834   0.06221   0.07639   0.07696   0.08058
 Alpha virt. eigenvalues --    0.08417   0.08676   0.08877   0.09032   0.09617
 Alpha virt. eigenvalues --    0.10073   0.10125   0.11271   0.11603   0.11635
 Alpha virt. eigenvalues --    0.11851   0.12159   0.12572   0.12907   0.13603
 Alpha virt. eigenvalues --    0.13821   0.14519   0.14800   0.14978   0.15336
 Alpha virt. eigenvalues --    0.15381   0.15571   0.16906   0.17480   0.17844
 Alpha virt. eigenvalues --    0.18109   0.18379   0.18905   0.19042   0.20351
 Alpha virt. eigenvalues --    0.20503   0.20623   0.20903   0.21341   0.21962
 Alpha virt. eigenvalues --    0.22885   0.23003   0.23112   0.23491   0.24088
 Alpha virt. eigenvalues --    0.24099   0.24384   0.24891   0.25124   0.25543
 Alpha virt. eigenvalues --    0.26004   0.26175   0.26569   0.26720   0.27432
 Alpha virt. eigenvalues --    0.27631   0.27982   0.28480   0.29151   0.29279
 Alpha virt. eigenvalues --    0.29596   0.30042   0.30062   0.30314   0.30768
 Alpha virt. eigenvalues --    0.31680   0.32352   0.32405   0.32610   0.33006
 Alpha virt. eigenvalues --    0.33283   0.33755   0.34165   0.34311   0.34383
 Alpha virt. eigenvalues --    0.34891   0.35079   0.35094   0.35817   0.36287
 Alpha virt. eigenvalues --    0.37533   0.38117   0.38355   0.38938   0.39805
 Alpha virt. eigenvalues --    0.39827   0.40220   0.41357   0.42204   0.43006
 Alpha virt. eigenvalues --    0.43802   0.44055   0.45180   0.45889   0.46090
 Alpha virt. eigenvalues --    0.46831   0.47150   0.49221   0.50484   0.52158
 Alpha virt. eigenvalues --    0.53099   0.53797   0.54511   0.55191   0.55818
 Alpha virt. eigenvalues --    0.55946   0.56094   0.57505   0.58551   0.59012
 Alpha virt. eigenvalues --    0.60465   0.60558   0.60972   0.61827   0.61900
 Alpha virt. eigenvalues --    0.62013   0.63299   0.63961   0.64482   0.64974
 Alpha virt. eigenvalues --    0.65952   0.66844   0.67244   0.67859   0.68003
 Alpha virt. eigenvalues --    0.68248   0.68685   0.69021   0.70454   0.71666
 Alpha virt. eigenvalues --    0.72072   0.73936   0.74078   0.76701   0.76730
 Alpha virt. eigenvalues --    0.77156   0.77908   0.79129   0.79794   0.80356
 Alpha virt. eigenvalues --    0.80519   0.82516   0.84500   0.86902   0.87896
 Alpha virt. eigenvalues --    0.89515   0.89747   0.91451   0.92425   0.92835
 Alpha virt. eigenvalues --    0.93968   0.94600   0.95478   0.95638   0.96751
 Alpha virt. eigenvalues --    0.97057   0.97403   0.98112   0.99804   1.00094
 Alpha virt. eigenvalues --    1.00277   1.00876   1.01984   1.03108   1.04089
 Alpha virt. eigenvalues --    1.04786   1.06843   1.07505   1.08076   1.09076
 Alpha virt. eigenvalues --    1.10927   1.11353   1.11867   1.12098   1.12680
 Alpha virt. eigenvalues --    1.13715   1.14923   1.15560   1.16970   1.17577
 Alpha virt. eigenvalues --    1.17973   1.18996   1.19278   1.20491   1.21222
 Alpha virt. eigenvalues --    1.21984   1.22377   1.22502   1.22931   1.23374
 Alpha virt. eigenvalues --    1.24022   1.24203   1.25427   1.25547   1.26600
 Alpha virt. eigenvalues --    1.26731   1.27439   1.27479   1.28730   1.29223
 Alpha virt. eigenvalues --    1.30219   1.31865   1.33730   1.34506   1.36892
 Alpha virt. eigenvalues --    1.37343   1.38267   1.40749   1.41211   1.42917
 Alpha virt. eigenvalues --    1.43058   1.43369   1.45910   1.46563   1.46674
 Alpha virt. eigenvalues --    1.47560   1.50796   1.53044   1.53876   1.55650
 Alpha virt. eigenvalues --    1.56948   1.57539   1.58112   1.58955   1.61652
 Alpha virt. eigenvalues --    1.62371   1.62658   1.63691   1.64842   1.66373
 Alpha virt. eigenvalues --    1.67343   1.68899   1.69110   1.69462   1.71454
 Alpha virt. eigenvalues --    1.72401   1.73862   1.75171   1.76391   1.80271
 Alpha virt. eigenvalues --    1.80777   1.81178   1.81535   1.82125   1.84164
 Alpha virt. eigenvalues --    1.84695   1.87451   1.89093   1.89804   1.91206
 Alpha virt. eigenvalues --    1.92072   1.92773   1.93873   1.94390   1.95226
 Alpha virt. eigenvalues --    1.95886   1.96706   1.97613   2.00019   2.00390
 Alpha virt. eigenvalues --    2.00972   2.01903   2.04829   2.05390   2.08929
 Alpha virt. eigenvalues --    2.10053   2.10605   2.12345   2.13423   2.14123
 Alpha virt. eigenvalues --    2.15919   2.16058   2.19401   2.20200   2.21359
 Alpha virt. eigenvalues --    2.22208   2.24311   2.27971   2.29401   2.33890
 Alpha virt. eigenvalues --    2.34382   2.35265   2.36291   2.37226   2.39491
 Alpha virt. eigenvalues --    2.40124   2.43929   2.44470   2.50068   2.54037
 Alpha virt. eigenvalues --    2.56061   2.60995   2.62027   2.63099   2.64574
 Alpha virt. eigenvalues --    2.65934   2.67270   2.68077   2.68821   2.69698
 Alpha virt. eigenvalues --    2.72183   2.73592   2.74349   2.75530   2.76644
 Alpha virt. eigenvalues --    2.77009   2.79521   2.81358   2.82615   2.82649
 Alpha virt. eigenvalues --    2.87295   2.88673   2.90947   2.92147   2.98927
 Alpha virt. eigenvalues --    3.01015   3.03636   3.06302   3.06503   3.07580
 Alpha virt. eigenvalues --    3.08957   3.11922   3.12446   3.12472   3.13354
 Alpha virt. eigenvalues --    3.14141   3.14166   3.14451   3.14683   3.14825
 Alpha virt. eigenvalues --    3.15389   3.15912   3.17490   3.18518   3.19307
 Alpha virt. eigenvalues --    3.20138   3.22307   3.24604   3.25404   3.25416
 Alpha virt. eigenvalues --    3.27317   3.27534   3.28561   3.29299   3.31121
 Alpha virt. eigenvalues --    3.31782   3.39118   3.40646   3.41504   3.42309
 Alpha virt. eigenvalues --    3.44881   3.48004   3.48327   3.49535   3.50743
 Alpha virt. eigenvalues --    3.53063   3.55882   3.56959   3.58136   3.60304
 Alpha virt. eigenvalues --    3.64209   3.66493   3.70952   3.72163   3.76477
 Alpha virt. eigenvalues --    3.82049   3.83166   3.86684   3.88790   3.93188
 Alpha virt. eigenvalues --    3.93822   3.95402   3.96505   3.98806   4.01272
 Alpha virt. eigenvalues --    4.02172   4.16341   4.18374   4.23342   4.25589
 Alpha virt. eigenvalues --    4.25872   4.28943   4.32421   4.35811   4.53269
 Alpha virt. eigenvalues --    4.85609   4.93000   4.94440   5.06059   5.07039
 Alpha virt. eigenvalues --    5.10785   5.11295   5.13813   5.15538   5.16749
 Alpha virt. eigenvalues --    5.17781   5.43998   5.45917   5.47892   5.50735
 Alpha virt. eigenvalues --    5.55654   5.57080   5.59051   5.63601   5.74426
 Alpha virt. eigenvalues --    5.76230   5.85751   5.87459   5.89152   5.92871
 Alpha virt. eigenvalues --    5.93663   5.94123  23.52064  23.63771  23.91522
 Alpha virt. eigenvalues --   23.92942  23.94038  23.94760  23.95963  23.97789
 Alpha virt. eigenvalues --   24.06552  24.07726  24.07904  24.10062  24.17539
 Alpha virt. eigenvalues --   24.17887  49.89296  49.90466  49.95693  49.96633
 Alpha virt. eigenvalues --   50.01031  50.01903  50.04920  50.09303
          Condensed to atoms (all electrons):
               1          2          3          4          5          6
     1  O    8.021875   0.001066   0.020878   0.000043  -0.000255  -0.000008
     2  O    0.001066   8.046025  -0.000002   0.010892   0.000029  -0.000267
     3  O    0.020878  -0.000002   8.120620  -0.000018   0.016115  -0.000001
     4  O    0.000043   0.010892  -0.000018   8.138710  -0.000001   0.020992
     5  O   -0.000255   0.000029   0.016115  -0.000001   7.875213   0.000000
     6  O   -0.000008  -0.000267  -0.000001   0.020992   0.000000   7.957874
     7  O    0.000004  -0.000061   0.000008  -0.000847  -0.000000   0.022518
     8  O   -0.000092  -0.000528   0.000005   0.000013   0.056879  -0.000000
     9  C   -0.014263  -0.099196   0.565074   0.033216   0.105008   0.001550
    10  C   -0.087639   0.026886   0.025608   0.599837   0.000035   0.073730
    11  C   -0.013979  -0.665612   0.138478  -0.057837  -0.021305   0.009542
    12  C   -0.670551  -0.047624  -0.055603   0.134057   0.004854  -0.001169
    13  C    0.624747  -0.049019  -0.015886   0.034278  -0.005339   0.006502
    14  C   -0.043377   0.568498   0.048923  -0.014701  -0.004011   0.002528
    15  C   -0.098037  -0.015961   0.429007   0.008333   0.315859   0.000661
    16  C   -0.020758  -0.113248   0.007071   0.516842   0.000499   0.221048
    17  C    0.031474   0.275134  -0.037481   0.011353  -0.136120   0.000474
    18  C    0.186897   0.012729   0.013262  -0.026525  -0.000558  -0.158037
    19  C    0.020657   0.000914  -1.042425   0.003166   0.775211  -0.000017
    20  C   -0.007861   0.015175   0.003242  -1.159548   0.000090   0.872331
    21  C    0.139326  -0.004028   0.004192  -0.172551   0.000070  -1.049912
    22  C    0.019683   0.151288  -0.170117   0.001256  -0.993142   0.000021
    23  H    0.000045  -0.014286  -0.000434  -0.000726  -0.000758  -0.000050
    24  H   -0.010970   0.000388  -0.000457  -0.000578  -0.000057  -0.002199
    25  H    0.066648  -0.000525   0.208114  -0.000002   0.000370   0.000005
    26  H   -0.000467   0.076960   0.000013   0.199409   0.000000   0.001031
    27  H    0.000185   0.000077   0.017568   0.000002   0.235367   0.000000
    28  H    0.000022   0.000048   0.000001   0.014592   0.000000   0.262919
    29  H    0.000030   0.000006   0.000003  -0.000500   0.000000   0.017055
    30  H    0.000089   0.000509  -0.000333   0.000006  -0.005379   0.000001
               7          8          9         10         11         12
     1  O    0.000004  -0.000092  -0.014263  -0.087639  -0.013979  -0.670551
     2  O   -0.000061  -0.000528  -0.099196   0.026886  -0.665612  -0.047624
     3  O    0.000008   0.000005   0.565074   0.025608   0.138478  -0.055603
     4  O   -0.000847   0.000013   0.033216   0.599837  -0.057837   0.134057
     5  O   -0.000000   0.056879   0.105008   0.000035  -0.021305   0.004854
     6  O    0.022518  -0.000000   0.001550   0.073730   0.009542  -0.001169
     7  O    7.940647   0.000000   0.005616   0.030818   0.002882   0.055758
     8  O    0.000000   7.916959   0.002905   0.005935   0.128366   0.003490
     9  C    0.005616   0.002905  26.337641  -3.711470   5.979892  -4.746972
    10  C    0.030818   0.005935  -3.711470  23.960942  -4.258163   4.545708
    11  C    0.002882   0.128366   5.979892  -4.258163  18.740295  -2.095408
    12  C    0.055758   0.003490  -4.746972   4.545708  -2.095408  17.812889
    13  C    0.028777   0.012377   1.185636   2.735373   2.664425  -0.837119
    14  C    0.018465   0.019455   4.152613   2.252705  -0.524167   2.951876
    15  C   -0.001982  -0.004744   0.609256  -4.921345  -3.934166  -1.616637
    16  C    0.025696  -0.002155  -5.135368   2.675465  -1.332079  -3.053172
    17  C    0.001281   0.431728  -2.728463  -1.453483  -0.520330  -3.262709
    18  C   -0.254272   0.001370  -3.234927  -0.359266  -2.615721   3.256664
    19  C   -0.000118  -0.884923 -10.568306  -2.339288  -3.074553   1.755102
    20  C   -0.068272  -0.000287  -2.095054 -10.330731   1.223033  -3.140572
    21  C    0.155739  -0.000052   0.557053  -4.154718  -0.756534  -5.210557
    22  C   -0.000130   0.290793  -1.490030   0.405361  -4.270681  -0.943020
    23  H    0.000014  -0.012908   0.059200  -0.147076   0.394205  -0.023023
    24  H   -0.024328   0.000020  -0.190233   0.081347  -0.062719   0.230218
    25  H   -0.000068  -0.000028  -0.325432   0.014115  -0.033654   0.048664
    26  H   -0.000377  -0.000032   0.013823  -0.333767   0.047207  -0.029999
    27  H    0.000002  -0.004117  -0.159028  -0.007809  -0.010069   0.003439
    28  H    0.001505   0.000001  -0.008105  -0.089811   0.000297  -0.012445
    29  H    0.242336  -0.000000  -0.000517  -0.020950  -0.002800  -0.025723
    30  H   -0.000000   0.218910   0.022788   0.005738  -0.124540  -0.006966
              13         14         15         16         17         18
     1  O    0.624747  -0.043377  -0.098037  -0.020758   0.031474   0.186897
     2  O   -0.049019   0.568498  -0.015961  -0.113248   0.275134   0.012729
     3  O   -0.015886   0.048923   0.429007   0.007071  -0.037481   0.013262
     4  O    0.034278  -0.014701   0.008333   0.516842   0.011353  -0.026525
     5  O   -0.005339  -0.004011   0.315859   0.000499  -0.136120  -0.000558
     6  O    0.006502   0.002528   0.000661   0.221048   0.000474  -0.158037
     7  O    0.028777   0.018465  -0.001982   0.025696   0.001281  -0.254272
     8  O    0.012377   0.019455  -0.004744  -0.002155   0.431728   0.001370
     9  C    1.185636   4.152613   0.609256  -5.135368  -2.728463  -3.234927
    10  C    2.735373   2.252705  -4.921345   2.675465  -1.453483  -0.359266
    11  C    2.664425  -0.524167  -3.934166  -1.332079  -0.520330  -2.615721
    12  C   -0.837119   2.951876  -1.616637  -3.053172  -3.262709   3.256664
    13  C   19.917013   2.773791  -5.077723  -2.887746  -2.720108  -6.717562
    14  C    2.773791  17.735995  -2.836865  -6.996899  -6.106029  -1.976813
    15  C   -5.077723  -2.836865  37.421991  -2.447659   2.561127  -0.001479
    16  C   -2.887746  -6.996899  -2.447659  32.464003   0.495148   1.851695
    17  C   -2.720108  -6.106029   2.561127   0.495148  28.376392  -0.490129
    18  C   -6.717562  -1.976813  -0.001479   1.851695  -0.490129  23.479070
    19  C   -2.476723  -2.002942   2.410623  -1.119434 -10.076301   0.548636
    20  C   -0.756664  -3.808371  -0.907163   1.029847   0.395549  -6.940566
    21  C    2.120347  -0.562343   0.683260 -10.674935  -0.607461  -0.494215
    22  C   -3.455443   1.322203 -16.146349   0.841520   1.364279  -0.607350
    23  H    0.001078  -0.079095   0.112958  -0.064586   0.547705  -0.004790
    24  H   -0.217485  -0.048626  -0.043144   0.150931  -0.007262   0.824359
    25  H    0.093464   0.002914   0.054566   0.005706   0.006823  -0.028719
    26  H    0.003036   0.049258   0.001008   0.052346  -0.044258   0.003589
    27  H   -0.013984  -0.018302  -0.505649  -0.002328   0.089287   0.003756
    28  H   -0.013612  -0.021442  -0.001208  -0.305235   0.003239   0.082996
    29  H    0.001495  -0.004393   0.000999  -0.053283  -0.001047   0.079781
    30  H   -0.010152   0.018744   0.053919   0.006239  -0.418538  -0.001538
              19         20         21         22         23         24
     1  O    0.020657  -0.007861   0.139326   0.019683   0.000045  -0.010970
     2  O    0.000914   0.015175  -0.004028   0.151288  -0.014286   0.000388
     3  O   -1.042425   0.003242   0.004192  -0.170117  -0.000434  -0.000457
     4  O    0.003166  -1.159548  -0.172551   0.001256  -0.000726  -0.000578
     5  O    0.775211   0.000090   0.000070  -0.993142  -0.000758  -0.000057
     6  O   -0.000017   0.872331  -1.049912   0.000021  -0.000050  -0.002199
     7  O   -0.000118  -0.068272   0.155739  -0.000130   0.000014  -0.024328
     8  O   -0.884923  -0.000287  -0.000052   0.290793  -0.012908   0.000020
     9  C  -10.568306  -2.095054   0.557053  -1.490030   0.059200  -0.190233
    10  C   -2.339288 -10.330731  -4.154718   0.405361  -0.147076   0.081347
    11  C   -3.074553   1.223033  -0.756534  -4.270681   0.394205  -0.062719
    12  C    1.755102  -3.140572  -5.210557  -0.943020  -0.023023   0.230218
    13  C   -2.476723  -0.756664   2.120347  -3.455443   0.001078  -0.217485
    14  C   -2.002942  -3.808371  -0.562343   1.322203  -0.079095  -0.048626
    15  C    2.410623  -0.907163   0.683260 -16.146349   0.112958  -0.043144
    16  C   -1.119434   1.029847 -10.674935   0.841520  -0.064586   0.150931
    17  C  -10.076301   0.395549  -0.607461   1.364279   0.547705  -0.007262
    18  C    0.548636  -6.940566  -0.494215  -0.607350  -0.004790   0.824359
    19  C   41.852446  -0.257783   0.229425  -8.078884   0.023515  -0.001650
    20  C   -0.257783  33.676180  -1.819428   0.239505  -0.009541  -0.140229
    21  C    0.229425  -1.819428  28.028345   0.039342  -0.004209  -0.263198
    22  C   -8.078884   0.239505   0.039342  38.093719  -0.485928  -0.012543
    23  H    0.023515  -0.009541  -0.004209  -0.485928   0.468571  -0.000192
    24  H   -0.001650  -0.140229  -0.263198  -0.012543  -0.000192   0.420269
    25  H    0.150053   0.002922  -0.007191   0.042079   0.000793  -0.000673
    26  H    0.002852   0.202430   0.061999  -0.006065   0.000998   0.001072
    27  H    0.230106  -0.000391  -0.000251   0.404766   0.001572   0.000081
    28  H   -0.000366   0.098607   0.282704  -0.000029  -0.000113   0.000874
    29  H    0.000171  -0.238988   0.282844   0.000184  -0.000016   0.003995
    30  H    0.331241   0.000772  -0.000079   0.152776  -0.009035  -0.000043
              25         26         27         28         29         30
     1  O    0.066648  -0.000467   0.000185   0.000022   0.000030   0.000089
     2  O   -0.000525   0.076960   0.000077   0.000048   0.000006   0.000509
     3  O    0.208114   0.000013   0.017568   0.000001   0.000003  -0.000333
     4  O   -0.000002   0.199409   0.000002   0.014592  -0.000500   0.000006
     5  O    0.000370   0.000000   0.235367   0.000000   0.000000  -0.005379
     6  O    0.000005   0.001031   0.000000   0.262919   0.017055   0.000001
     7  O   -0.000068  -0.000377   0.000002   0.001505   0.242336  -0.000000
     8  O   -0.000028  -0.000032  -0.004117   0.000001  -0.000000   0.218910
     9  C   -0.325432   0.013823  -0.159028  -0.008105  -0.000517   0.022788
    10  C    0.014115  -0.333767  -0.007809  -0.089811  -0.020950   0.005738
    11  C   -0.033654   0.047207  -0.010069   0.000297  -0.002800  -0.124540
    12  C    0.048664  -0.029999   0.003439  -0.012445  -0.025723  -0.006966
    13  C    0.093464   0.003036  -0.013984  -0.013612   0.001495  -0.010152
    14  C    0.002914   0.049258  -0.018302  -0.021442  -0.004393   0.018744
    15  C    0.054566   0.001008  -0.505649  -0.001208   0.000999   0.053919
    16  C    0.005706   0.052346  -0.002328  -0.305235  -0.053283   0.006239
    17  C    0.006823  -0.044258   0.089287   0.003239  -0.001047  -0.418538
    18  C   -0.028719   0.003589   0.003756   0.082996   0.079781  -0.001538
    19  C    0.150053   0.002852   0.230106  -0.000366   0.000171   0.331241
    20  C    0.002922   0.202430  -0.000391   0.098607  -0.238988   0.000772
    21  C   -0.007191   0.061999  -0.000251   0.282704   0.282844  -0.000079
    22  C    0.042079  -0.006065   0.404766  -0.000029   0.000184   0.152776
    23  H    0.000793   0.000998   0.001572  -0.000113  -0.000016  -0.009035
    24  H   -0.000673   0.001072   0.000081   0.000874   0.003995  -0.000043
    25  H    0.332344  -0.000051   0.002272  -0.000012  -0.000006   0.000012
    26  H   -0.000051   0.337807  -0.000015   0.000918   0.000157  -0.000169
    27  H    0.002272  -0.000015   0.402807   0.000001  -0.000001  -0.000171
    28  H   -0.000012   0.000918   0.000001   0.366886   0.000983   0.000006
    29  H   -0.000006   0.000157  -0.000001   0.000983   0.407418   0.000000
    30  H    0.000012  -0.000169  -0.000171   0.000006   0.000000   0.460447
 Mulliken charges:
               1
     1  O   -0.165411
     2  O   -0.176266
     3  O   -0.295425
     4  O   -0.293165
     5  O   -0.218674
     6  O   -0.259120
     7  O   -0.181612
     8  O   -0.179338
     9  C    0.876095
    10  C    0.775911
    11  C    1.045695
    12  C    0.976551
    13  C   -0.947773
    14  C   -0.869590
    15  C   -0.103457
    16  C   -0.135171
    17  C    0.018727
    18  C   -0.432338
    19  C   -0.410406
    20  C   -0.078233
    21  C   -0.802987
    22  C   -0.709067
    23  H    0.246116
    24  H    0.313032
    25  H    0.364500
    26  H    0.359287
    27  H    0.330826
    28  H    0.335780
    29  H    0.310765
    30  H    0.304746
 Sum of Mulliken charges =  -0.00000
 Mulliken charges with hydrogens summed into heavy atoms:
               1
     1  O   -0.165411
     2  O   -0.176266
     3  O    0.069075
     4  O    0.066122
     5  O    0.112152
     6  O    0.076660
     7  O    0.129154
     8  O    0.125407
     9  C    0.876095
    10  C    0.775911
    11  C    1.045695
    12  C    0.976551
    13  C   -0.947773
    14  C   -0.869590
    15  C   -0.103457
    16  C   -0.135171
    17  C    0.264843
    18  C   -0.119306
    19  C   -0.410406
    20  C   -0.078233
    21  C   -0.802987
    22  C   -0.709067
 Electronic spatial extent (au):  <R**2>=           7187.3659
 Charge=             -0.0000 electrons
 Dipole moment (field-independent basis, Debye):
    X=              1.7028    Y=              2.1959    Z=              0.0023  Tot=              2.7787
 Quadrupole moment (field-independent basis, Debye-Ang):
   XX=           -126.3901   YY=           -121.9794   ZZ=           -127.3301
   XY=              1.3541   XZ=              0.0169   YZ=              0.0185
 Traceless Quadrupole moment (field-independent basis, Debye-Ang):
   XX=             -1.1569   YY=              3.2538   ZZ=             -2.0969
   XY=              1.3541   XZ=              0.0169   YZ=              0.0185
 Octapole moment (field-independent basis, Debye-Ang**2):
  XXX=            148.4901  YYY=             39.3364  ZZZ=              0.0135  XYY=            -48.6327
  XXY=             23.4295  XXZ=              0.0156  XZZ=              0.1975  YZZ=              0.1687
  YYZ=              0.0525  XYZ=              0.0369
 Hexadecapole moment (field-independent basis, Debye-Ang**3):
 XXXX=          -7069.2638 YYYY=          -1928.1331 ZZZZ=           -129.9505 XXXY=            175.7162
 XXXZ=              0.2970 YYYX=            -15.6706 YYYZ=              0.1872 ZZZX=             -0.0112
 ZZZY=             -0.0259 XXYY=          -1278.3944 XXZZ=          -1216.1759 YYZZ=           -365.4836
 XXYZ=             -0.0311 YYXZ=              0.0932 ZZXY=             14.1240
 N-N= 1.773135097717D+03 E-N=-6.215275959226D+03  KE= 1.135732331439D+03
 R6APFD:  NTU= -4 IXU= 1 FactS= 1.050
 Calling FoFJK, ICntrl=      2127 FMM=F ISym2X=0 I1Cent= 0 IOpClX= 0 NMat=1 NMatS=1 NMatT=0.
 ***** Axes restored to original set *****
 -------------------------------------------------------------------
 Center     Atomic                   Forces (Hartrees/Bohr)
 Number     Number              X              Y              Z
 -------------------------------------------------------------------
      1        8          -0.002056811   -0.001261711   -0.000070906
      2        8           0.001956353    0.003660656    0.000011630
      3        8          -0.020689282    0.021016456    0.000016468
      4        8           0.021439866   -0.019539364    0.000038967
      5        8           0.013122819   -0.001364000   -0.000016102
      6        8          -0.006854979    0.000810513   -0.000008771
      7        8          -0.001942387    0.016136143    0.000004575
      8        8           0.006080341   -0.003674201   -0.000014462
      9        6           0.009150031   -0.006651519   -0.000053015
     10        6          -0.009833553    0.007749326   -0.000030496
     11        6          -0.011192428    0.007614727   -0.000038885
     12        6           0.015780121   -0.007121856   -0.000020056
     13        6          -0.001150656   -0.005199385    0.000141697
     14        6           0.001028965    0.002497952    0.000072513
     15        6           0.013248686   -0.018873895   -0.000031557
     16        6          -0.011961603    0.018740687   -0.000017640
     17        6           0.011080446   -0.011927738    0.000005610
     18        6          -0.007411371    0.003159468   -0.000010189
     19        6          -0.024636575   -0.014013650    0.000023354
     20        6           0.005214363    0.014500568    0.000014267
     21        6           0.007310807   -0.008157715    0.000009480
     22        6           0.000334985    0.019735603    0.000024313
     23        1           0.003696379    0.000829212   -0.000001669
     24        1          -0.001629662    0.000451300   -0.000000676
     25        1           0.007196813    0.003273639    0.000020155
     26        1          -0.007539581   -0.003140063   -0.000061527
     27        1          -0.000109790    0.008990334   -0.000004499
     28        1           0.001419082   -0.008446119   -0.000001441
     29        1          -0.006849637   -0.006581440   -0.000005153
     30        1          -0.004201743   -0.013213928    0.000004017
 -------------------------------------------------------------------
 Cartesian Forces:  Max     0.024636575 RMS     0.008539775

 GradGradGradGradGradGradGradGradGradGradGradGradGradGradGradGradGradGrad
 Berny optimization.
 FormGI is forming the generalized inverse of G from B-inverse, IUseBI=4.
 Internal  Forces:  Max     0.022213031 RMS     0.005606411
 Search for a local minimum.
 Step number   1 out of a maximum of  166
 All quantities printed in internal units (Hartrees-Bohrs-Radians)
 Mixed Optimization -- RFO/linear search
 Second derivative matrix not updated -- first step.
 ITU=  0
     Eigenvalues ---    0.01068   0.01068   0.01068   0.01553   0.01640
     Eigenvalues ---    0.01767   0.01807   0.01883   0.01919   0.02116
     Eigenvalues ---    0.02118   0.02118   0.02119   0.02124   0.02126
     Eigenvalues ---    0.02155   0.02157   0.02158   0.02159   0.02162
     Eigenvalues ---    0.02163   0.02163   0.02164   0.02167   0.02167
     Eigenvalues ---    0.02185   0.02185   0.16000   0.16000   0.16000
     Eigenvalues ---    0.16000   0.16000   0.16000   0.16000   0.16000
     Eigenvalues ---    0.23519   0.23551   0.25000   0.25000   0.25000
     Eigenvalues ---    0.25000   0.25000   0.25000   0.25000   0.25000
     Eigenvalues ---    0.25000   0.25000   0.25000   0.25000   0.25000
     Eigenvalues ---    0.25000   0.25000   0.33201   0.33916   0.34889
     Eigenvalues ---    0.34905   0.35124   0.35129   0.40215   0.42067
     Eigenvalues ---    0.42100   0.42219   0.45148   0.45764   0.46025
     Eigenvalues ---    0.46052   0.46069   0.46347   0.46550   0.46578
     Eigenvalues ---    0.51958   0.51983   0.52071   0.52089   0.52400
     Eigenvalues ---    0.52409   0.52768   0.52777   0.52777   0.52853
     Eigenvalues ---    0.53672   0.53690   0.93296   0.93378
 RFO step:  Lambda=-1.43288104D-02 EMin= 1.06782560D-02
 Linear search not attempted -- first point.
 Iteration  1 RMS(Cart)=  0.03896177 RMS(Int)=  0.00082013
 Iteration  2 RMS(Cart)=  0.00130996 RMS(Int)=  0.00001213
 Iteration  3 RMS(Cart)=  0.00000096 RMS(Int)=  0.00001212
 Variable       Old X    -DE/DX   Delta X   Delta X   Delta X     New X
                                 (Linear)    (Quad)   (Total)
    R1        2.31414   0.00141   0.00000   0.00149   0.00149   2.31563
    R2        2.31450   0.00379   0.00000   0.00401   0.00401   2.31851
    R3        2.57939  -0.02221   0.00000  -0.04160  -0.04160   2.53779
    R4        1.83032   0.00472   0.00000   0.00857   0.00857   1.83888
    R5        2.57915  -0.02056   0.00000  -0.03850  -0.03850   2.54066
    R6        1.83015   0.00509   0.00000   0.00923   0.00923   1.83938
    R7        2.57814  -0.01500   0.00000  -0.02802  -0.02802   2.55012
    R8        1.83863  -0.00895   0.00000  -0.01652  -0.01652   1.82211
    R9        2.57831  -0.00809   0.00000  -0.01512  -0.01512   2.56320
   R10        1.83863  -0.00855   0.00000  -0.01576  -0.01576   1.82286
   R11        2.57510  -0.01273   0.00000  -0.02365  -0.02365   2.55145
   R12        1.83871  -0.00940   0.00000  -0.01734  -0.01734   1.82137
   R13        2.57518  -0.01147   0.00000  -0.02130  -0.02130   2.55389
   R14        1.83791  -0.01387   0.00000  -0.02554  -0.02554   1.81237
   R15        2.63884   0.00802   0.00000   0.01684   0.01686   2.65570
   R16        2.79159  -0.00260   0.00000  -0.00725  -0.00724   2.78434
   R17        2.64586   0.00563   0.00000   0.01283   0.01285   2.65870
   R18        2.63904   0.01049   0.00000   0.02308   0.02310   2.66214
   R19        2.79152  -0.00355   0.00000  -0.00967  -0.00968   2.78184
   R20        2.64534   0.00476   0.00000   0.01117   0.01120   2.65654
   R21        2.79125   0.00253   0.00000   0.00671   0.00671   2.79797
   R22        2.64578  -0.01213   0.00000  -0.02638  -0.02638   2.61940
   R23        2.79133   0.00379   0.00000   0.01070   0.01070   2.80203
   R24        2.64556  -0.01206   0.00000  -0.02588  -0.02589   2.61967
   R25        2.63651  -0.00076   0.00000  -0.00102  -0.00102   2.63549
   R26        2.63640  -0.00361   0.00000  -0.00728  -0.00727   2.62913
   R27        2.63649   0.00238   0.00000   0.00411   0.00409   2.64059
   R28        2.05474   0.00114   0.00000   0.00311   0.00311   2.05785
   R29        2.63649  -0.00276   0.00000  -0.00680  -0.00683   2.62967
   R30        2.05466  -0.00033   0.00000  -0.00089  -0.00089   2.05377
   R31        2.63334  -0.00091   0.00000  -0.00217  -0.00219   2.63116
   R32        2.63331  -0.00141   0.00000  -0.00371  -0.00374   2.62957
    A1        1.93750  -0.01161   0.00000  -0.06659  -0.06659   1.87091
    A2        1.93768  -0.01170   0.00000  -0.06710  -0.06710   1.87059
    A3        1.89149  -0.00148   0.00000  -0.00851  -0.00851   1.88298
    A4        1.89146   0.00101   0.00000   0.00581   0.00581   1.89728
    A5        1.89054   0.00251   0.00000   0.01441   0.01441   1.90494
    A6        1.90393   0.00029   0.00000   0.00164   0.00164   1.90557
    A7        2.10275   0.00162   0.00000   0.00503   0.00502   2.10777
    A8        2.09288  -0.00611   0.00000  -0.02114  -0.02111   2.07176
    A9        2.08756   0.00449   0.00000   0.01612   0.01609   2.10365
   A10        2.10254   0.00206   0.00000   0.00712   0.00709   2.10963
   A11        2.09303  -0.00618   0.00000  -0.02031  -0.02026   2.07277
   A12        2.08762   0.00413   0.00000   0.01319   0.01316   2.10078
   A13        2.10274   0.00371   0.00000   0.01402   0.01402   2.11677
   A14        2.09296   0.00238   0.00000   0.00849   0.00850   2.10145
   A15        2.08749  -0.00609   0.00000  -0.02251  -0.02252   2.06496
   A16        2.10287   0.00218   0.00000   0.00901   0.00901   2.11188
   A17        2.09278   0.00439   0.00000   0.01723   0.01724   2.11001
   A18        2.08754  -0.00658   0.00000  -0.02623  -0.02624   2.06130
   A19        2.12605   0.00006   0.00000  -0.00013  -0.00014   2.12591
   A20        2.07951   0.00460   0.00000   0.01701   0.01701   2.09651
   A21        2.07763  -0.00466   0.00000  -0.01688  -0.01687   2.06076
   A22        2.12599   0.00051   0.00000   0.00178   0.00177   2.12777
   A23        2.07935   0.00440   0.00000   0.01651   0.01651   2.09586
   A24        2.07784  -0.00491   0.00000  -0.01829  -0.01828   2.05956
   A25        2.13362   0.01424   0.00000   0.05266   0.05264   2.18627
   A26        2.05542  -0.01720   0.00000  -0.06629  -0.06631   1.98911
   A27        2.09414   0.00296   0.00000   0.01364   0.01366   2.10780
   A28        2.13358   0.01620   0.00000   0.05994   0.05992   2.19349
   A29        2.05550  -0.01562   0.00000  -0.06043  -0.06045   1.99505
   A30        2.09411  -0.00058   0.00000   0.00049   0.00053   2.09464
   A31        2.09409   0.00239   0.00000   0.00705   0.00703   2.10112
   A32        2.10569  -0.00491   0.00000  -0.02482  -0.02481   2.08087
   A33        2.08341   0.00252   0.00000   0.01777   0.01778   2.10119
   A34        2.09420  -0.00085   0.00000  -0.00594  -0.00598   2.08823
   A35        2.11295  -0.00128   0.00000  -0.00681  -0.00679   2.10616
   A36        2.07603   0.00213   0.00000   0.01274   0.01276   2.08880
   A37        2.09688   0.00231   0.00000   0.00856   0.00857   2.10545
   A38        2.09019  -0.00037   0.00000  -0.00157  -0.00157   2.08863
   A39        2.09611  -0.00194   0.00000  -0.00699  -0.00700   2.08911
   A40        2.09697   0.00591   0.00000   0.02270   0.02270   2.11967
   A41        2.09002  -0.00730   0.00000  -0.02729  -0.02728   2.06274
   A42        2.09619   0.00139   0.00000   0.00459   0.00458   2.10077
   A43        2.08288   0.00110   0.00000   0.00567   0.00569   2.08857
   A44        2.10425  -0.00294   0.00000  -0.00960  -0.00958   2.09467
   A45        2.09606   0.00184   0.00000   0.00394   0.00389   2.09994
   A46        2.08308   0.01613   0.00000   0.06217   0.06218   2.14526
   A47        2.10390  -0.01646   0.00000  -0.06112  -0.06111   2.04280
   A48        2.09620   0.00032   0.00000  -0.00104  -0.00108   2.09512
    D1       -0.00061   0.00002   0.00000   0.00048   0.00048  -0.00013
    D2        3.14088   0.00003   0.00000   0.00081   0.00081  -3.14149
    D3        0.00222  -0.00006   0.00000  -0.00164  -0.00164   0.00059
    D4       -3.13963  -0.00007   0.00000  -0.00182  -0.00182  -3.14145
    D5       -0.00008  -0.00000   0.00000  -0.00009  -0.00009  -0.00017
    D6        3.14153  -0.00000   0.00000  -0.00006  -0.00006   3.14147
    D7       -0.00004   0.00001   0.00000   0.00015   0.00015   0.00011
    D8       -3.14154  -0.00000   0.00000  -0.00011  -0.00011   3.14154
    D9       -3.14143  -0.00000   0.00000  -0.00009  -0.00009  -3.14152
   D10       -0.00001   0.00000   0.00000   0.00008   0.00008   0.00007
   D11        0.00015  -0.00000   0.00000  -0.00008  -0.00008   0.00007
   D12        3.14148   0.00000   0.00000   0.00010   0.00011   3.14158
   D13       -0.00041   0.00000   0.00000   0.00016   0.00016  -0.00025
   D14        3.14128   0.00001   0.00000   0.00027   0.00027   3.14155
   D15        3.14149  -0.00000   0.00000  -0.00003  -0.00003   3.14146
   D16        0.00000   0.00000   0.00000   0.00007   0.00008   0.00008
   D17        3.14125   0.00003   0.00000   0.00125   0.00124  -3.14069
   D18        0.00095  -0.00002   0.00000  -0.00092  -0.00092   0.00002
   D19       -0.00065   0.00004   0.00000   0.00144   0.00144   0.00079
   D20       -3.14095  -0.00002   0.00000  -0.00073  -0.00073   3.14150
   D21        3.14124   0.00002   0.00000   0.00049   0.00050  -3.14145
   D22       -0.00025   0.00001   0.00000   0.00015   0.00015  -0.00010
   D23       -0.00005   0.00001   0.00000   0.00030   0.00031   0.00026
   D24       -3.14154  -0.00000   0.00000  -0.00004  -0.00004  -3.14158
   D25       -0.00057   0.00001   0.00000   0.00040   0.00040  -0.00017
   D26        3.14129   0.00001   0.00000   0.00039   0.00039  -3.14151
   D27        3.14117   0.00001   0.00000   0.00022   0.00022   3.14139
   D28       -0.00016   0.00001   0.00000   0.00021   0.00021   0.00005
   D29       -3.14117  -0.00001   0.00000  -0.00046  -0.00046   3.14156
   D30        0.00110  -0.00003   0.00000  -0.00115  -0.00115  -0.00005
   D31        0.00029  -0.00001   0.00000  -0.00028  -0.00028   0.00001
   D32       -3.14063  -0.00003   0.00000  -0.00098  -0.00097   3.14158
   D33        3.14157  -0.00003   0.00000  -0.00065  -0.00065   3.14092
   D34        0.00025  -0.00002   0.00000  -0.00045  -0.00045  -0.00021
   D35        0.00012  -0.00003   0.00000  -0.00082  -0.00083  -0.00071
   D36       -3.14121  -0.00002   0.00000  -0.00063  -0.00063   3.14135
   D37       -3.14154   0.00000   0.00000   0.00019   0.00019  -3.14135
   D38       -0.00060   0.00002   0.00000   0.00086   0.00086   0.00026
   D39       -0.00005   0.00000   0.00000   0.00008   0.00008   0.00004
   D40        3.14089   0.00002   0.00000   0.00076   0.00076  -3.14154
   D41        0.00017  -0.00001   0.00000  -0.00021  -0.00021  -0.00004
   D42        3.14156  -0.00000   0.00000  -0.00002  -0.00002   3.14154
   D43       -3.14133  -0.00000   0.00000  -0.00011  -0.00011  -3.14143
   D44        0.00007   0.00000   0.00000   0.00008   0.00008   0.00015
   D45       -3.14079  -0.00004   0.00000  -0.00148  -0.00148   3.14092
   D46       -0.00045   0.00001   0.00000   0.00063   0.00063   0.00019
   D47        0.00054  -0.00004   0.00000  -0.00146  -0.00147  -0.00092
   D48        3.14088   0.00001   0.00000   0.00064   0.00065   3.14153
   D49       -0.00008   0.00001   0.00000   0.00016   0.00016   0.00008
   D50        3.14157  -0.00000   0.00000  -0.00002  -0.00002   3.14154
   D51       -3.14141   0.00001   0.00000   0.00015   0.00015  -3.14127
   D52        0.00023  -0.00000   0.00000  -0.00003  -0.00003   0.00020
   D53        0.00045  -0.00002   0.00000  -0.00055  -0.00054  -0.00009
   D54       -3.14116  -0.00002   0.00000  -0.00057  -0.00056   3.14146
   D55       -3.14124  -0.00001   0.00000  -0.00021  -0.00022  -3.14146
   D56        0.00033  -0.00001   0.00000  -0.00024  -0.00024   0.00009
   D57        0.00027   0.00001   0.00000   0.00023   0.00022   0.00049
   D58       -3.14142   0.00002   0.00000   0.00049   0.00049  -3.14093
   D59       -3.14157   0.00000   0.00000   0.00006   0.00006  -3.14151
   D60       -0.00008   0.00001   0.00000   0.00032   0.00033   0.00025
   D61        3.14125   0.00001   0.00000   0.00030   0.00030   3.14155
   D62       -0.00008   0.00000   0.00000   0.00012   0.00012   0.00003
   D63       -0.00015   0.00000   0.00000   0.00011   0.00012  -0.00003
   D64       -3.14148  -0.00000   0.00000  -0.00006  -0.00007  -3.14155
   D65       -3.14152  -0.00000   0.00000  -0.00013  -0.00013   3.14154
   D66        0.00025  -0.00001   0.00000  -0.00029  -0.00029  -0.00004
   D67        0.00002   0.00000   0.00000   0.00005   0.00005   0.00007
   D68       -3.14140  -0.00000   0.00000  -0.00011  -0.00011  -3.14151
   D69        0.00008  -0.00001   0.00000  -0.00012  -0.00011  -0.00002
   D70        3.14141   0.00000   0.00000   0.00008   0.00008   3.14149
   D71       -3.14149  -0.00001   0.00000  -0.00009  -0.00008  -3.14158
   D72       -0.00017   0.00000   0.00000   0.00011   0.00011  -0.00006
   D73       -0.00009   0.00000   0.00000   0.00014   0.00014   0.00005
   D74        3.14133   0.00001   0.00000   0.00031   0.00030  -3.14155
   D75       -3.14158  -0.00000   0.00000  -0.00012  -0.00012   3.14148
   D76       -0.00017   0.00000   0.00000   0.00004   0.00004  -0.00012
         Item               Value     Threshold  Converged?
 Maximum Force            0.022213     0.000450     NO 
 RMS     Force            0.005606     0.000300     NO 
 Maximum Displacement     0.172635     0.001800     NO 
 RMS     Displacement     0.038628     0.001200     NO 
 Predicted change in Energy=-7.511203D-03
 GradGradGradGradGradGradGradGradGradGradGradGradGradGradGradGradGradGrad

                          Input orientation:                          
 ---------------------------------------------------------------------
 Center     Atomic      Atomic             Coordinates (Angstroms)
 Number     Number       Type             X           Y           Z
 ---------------------------------------------------------------------
      1          8           0       -0.209877   -2.674876   -0.001075
      2          8           0        0.214910    2.688209    0.000619
      3          8           0       -2.877977   -2.470392    0.000087
      4          8           0        2.887654    2.488802   -0.000071
      5          8           0       -4.976925   -0.887970    0.000179
      6          8           0        4.990288    0.870569    0.000802
      7          8           0        4.692893   -1.820769    0.000186
      8          8           0       -4.734016    1.775955    0.000266
      9          6           0       -1.319106   -0.590355    0.000039
     10          6           0        1.327142    0.603805    0.000169
     11          6           0       -1.195507    0.809533    0.000088
     12          6           0        1.207139   -0.799820   -0.000134
     13          6           0       -0.124260   -1.452495   -0.000090
     14          6           0        0.132579    1.464073    0.000324
     15          6           0       -2.607794   -1.154911   -0.000023
     16          6           0        2.612638    1.172773    0.000368
     17          6           0       -2.324676    1.613479    0.000164
     18          6           0        2.331755   -1.610364   -0.000181
     19          6           0       -3.742143   -0.343565    0.000084
     20          6           0        3.736610    0.352814    0.000516
     21          6           0        3.597295   -1.031705    0.000170
     22          6           0       -3.599572    1.041465    0.000143
     23          1           0       -2.206600    2.696026    0.000251
     24          1           0        2.235005   -2.692858   -0.000371
     25          1           0       -2.025260   -2.939207    0.000093
     26          1           0        2.036174    2.960400    0.000000
     27          1           0       -4.877723   -1.847073    0.000004
     28          1           0        4.927464    1.833139    0.000970
     29          1           0        5.481516   -1.266659    0.000518
     30          1           0       -4.506228    2.707576    0.000304
 ---------------------------------------------------------------------
                    Distance matrix (angstroms):
                    1          2          3          4          5
     1  O    0.000000
     2  O    5.379881   0.000000
     3  O    2.675925   6.014741   0.000000
     4  O    6.021484   2.680173   7.605006   0.000000
     5  O    5.090951   6.304301   2.628620   8.558867   0.000000
     6  O    6.293799   5.109603   8.548194   2.653252  10.121156
     7  O    4.976611   6.354779   7.598690   4.672396   9.714706
     8  O    6.346474   5.032303   4.634258   7.654934   2.674977
     9  C    2.361274   3.619695   2.442257   5.213257   3.669907
    10  C    3.621074   2.362583   5.209003   2.447124   6.478167
    11  C    3.621128   2.349191   3.686274   4.414992   4.144953
    12  C    2.350270   3.626412   4.413500   3.693125   6.184692
    13  C    1.225376   4.154571   2.935826   4.960388   4.885391
[...]
 0000016,-0.00023728,0.00004571,0.00000006,-0.00176041,0.00024687,0.000
 00005,0.00038396,-0.00017341,0.00000003,-0.05923677,-0.02737100,-0.000
 00290,0.00004755,-0.00002261,0.00000001,-0.00433820,-0.00051142,0.0000
 0006,0.00241052,-0.02884419,-0.00000309,-0.00033932,-0.00008986,-0.000
 00003,0.00005575,-0.00000811,0.,0.05570190,-0.00207472,0.00087099,0.00
 000006,0.00019614,-0.00014966,0.00000008,-0.00011011,0.00000328,-0.000
 00002,0.00002834,0.00029904,0.00000002,-0.00001217,-0.00000306,0.,0.00
 001315,-0.00025941,-0.00000002,0.00044366,0.00028153,0.00000033,-0.000
 01806,0.00000842,0.,0.00010931,-0.00000305,-0.00000002,0.00281622,0.00
 119424,-0.00000084,0.00010646,-0.00004156,0.00000005,-0.00132203,-0.01
 364538,-0.00000143,-0.00064388,-0.00206616,0.00000025,-0.00038522,-0.0
 0042445,-0.00000009,-0.00000324,-0.00003379,0.00000002,-0.00085909,0.0
 0043606,0.00000025,-0.00008737,0.00003124,-0.00000004,-0.02837699,-0.3
 4130285,-0.00003100,0.00004741,-0.00002763,-0.00000003,-0.00094103,0.0
 0020212,-0.00000051,0.00168735,-0.00678051,-0.00000110,0.00006498,0.00
 004631,0.00000004,-0.00000509,-0.00000751,0.,0.02922058,0.36114036,-0.
 00000005,0.00000009,-0.00015704,0.00000019,-0.00000002,-0.00074221,-0.
 00000006,-0.00000007,0.00005184,0.00000004,-0.00000039,-0.00005895,-0.
 00000003,-0.00000002,0.00000896,-0.00000001,0.00000006,-0.00021193,-0.
 00000030,0.00000043,-0.00329953,-0.00000002,0.00000002,-0.00001783,-0.
 00000001,0.00000004,0.00022858,0.00000008,-0.00000082,0.00787344,0.000
 00002,-0.00000005,-0.00009900,-0.00000054,-0.00000212,0.00063197,0.,0.
 00000044,-0.00469788,0.,-0.00000010,0.00154634,-0.00000005,0.00000003,
 0.00012008,0.00000005,0.00000065,-0.00221289,-0.00000005,0.00000004,0.
 00002652,-0.00000335,-0.00003095,-0.03260687,0.00000009,-0.00000002,-0
 .00005028,0.00000028,-0.00000094,0.00622944,0.00000091,-0.00000036,0.0
 0365836,0.00000006,0.00000003,0.00002029,0.,0.,-0.00000259,0.00000288,
 0.00003387,0.02434613,0.00666592,0.02400874,0.00000533,-0.00151244,-0.
 00007812,0.00000016,-0.36573613,0.17836152,0.00002320,-0.00013359,0.00
 118586,0.00000022,-0.00113992,-0.00075616,-0.00000024,0.00123415,0.000
 67737,0.00000007,0.00032935,-0.00006006,-0.00000002,-0.00069321,-0.000
 88207,-0.00000009,-0.00835877,0.00400033,-0.00000078,-0.00055823,-0.00
 001006,0.00000027,-0.00142194,-0.00521367,0.00000016,0.00218452,0.0034
 0126,-0.00000053,0.00408913,-0.03268156,-0.00000160,0.00379840,-0.0010
 0504,-0.00000066,0.01509162,0.01814504,0.00000313,0.00159266,-0.000734
 19,-0.00000004,-0.00565752,-0.00032073,-0.00000056,-0.00033706,0.00053
 686,0.00000004,0.00379689,-0.01152856,-0.00000101,-0.00149004,0.000426
 81,0.,-0.00068378,0.00029902,0.00000011,0.00476095,0.00576783,0.000000
 98,-0.00015191,0.00008052,-0.00000014,-0.00049033,0.00011639,0.0000000
 4,0.34560240,0.00566919,-0.00866544,0.00000063,0.00067624,0.00049323,-
 0.00000004,0.14712915,-0.13602651,-0.00001726,0.00018616,0.00007762,0.
 00000003,-0.00137155,0.00176137,-0.00000009,0.00025960,0.00008951,0.00
 000002,0.00040690,-0.00023996,-0.00000004,-0.00066753,0.00001663,0.000
 00002,0.00064232,0.00069225,0.00000019,0.00028087,-0.00021882,0.000000
 04,0.00147963,0.00011710,0.00000055,0.00034355,-0.00070848,-0.00000030
 ,-0.00906242,-0.00010131,-0.00000110,-0.00152130,0.00004979,-0.0000000
 5,0.04037361,-0.03825326,-0.00000447,-0.00016095,-0.00022477,0.0000000
 3,0.00022450,0.00051406,0.00000001,0.00041579,0.00015128,-0.00000010,-
 0.00438618,-0.00473530,-0.00000143,-0.00014881,-0.00017898,-0.00000008
 ,-0.00037917,0.00022818,0.00000013,0.00173809,-0.00103764,-0.00000009,
 -0.00006432,0.00001835,0.,-0.00001951,0.00008571,0.00000005,-0.1842803
 4,0.18704027,0.00000282,0.00000227,-0.00758043,0.00000001,0.00000008,0
 .00005129,0.00002031,-0.00002004,-0.01139198,0.00000002,0.00000014,-0.
 00009195,-0.00000044,0.00000003,0.00067222,0.00000017,0.00000008,-0.00
 002311,0.00000012,-0.00000004,-0.00003478,-0.00000025,0.00000006,-0.00
 038865,-0.00000144,0.00000061,-0.00003984,0.00000016,0.00000008,-0.000
 14199,0.00000036,-0.00000054,-0.00094588,0.00000031,0.00000069,0.00159
 434,-0.00000038,-0.00000403,0.00046679,0.00000007,-0.00000013,-0.00012
 883,0.00000653,-0.00000172,-0.00115517,0.00000008,-0.00000010,0.000135
 49,-0.00000074,-0.00000006,0.00021744,0.,0.00000005,0.00019274,-0.0000
 0022,-0.00000135,0.00222660,-0.00000015,-0.00000003,0.00001004,-0.0000
 0013,0.00000009,-0.00016266,0.00000062,0.00000057,0.00122656,-0.000000
 04,0.00000002,0.00011288,-0.00000009,0.00000003,-0.00000397,-0.0000281
 4,0.00002308,0.01665242,-0.00149293,-0.00001678,0.00000005,0.00704807,
 0.02448998,0.00000326,-0.00014412,0.00121449,0.00000022,-0.36437424,0.
 17663660,0.00005693,0.00135049,0.00081223,0.00000021,-0.00081061,-0.00
 074062,-0.00000015,-0.00095165,-0.00081367,-0.00000008,0.00027173,-0.0
 0011523,-0.00000005,-0.00063268,-0.00011719,0.00000032,-0.00874503,0.0
 0398677,-0.00000054,0.00241531,0.00358164,-0.00000114,-0.00122111,-0.0
 0509675,0.00000079,0.00367512,-0.00106920,-0.00000043,0.00423455,-0.03
 326887,0.00000185,0.00169462,-0.00079160,-0.00000004,0.01558019,0.0181
 0933,0.00000225,-0.00048271,0.00052962,-0.00000027,-0.00572763,-0.0004
 5292,-0.00000011,-0.00172216,0.00021551,-0.00000018,0.00336761,-0.0112
 3010,-0.00000124,0.00500121,0.00533859,0.00000072,-0.00044759,0.000641
 29,0.00000023,-0.00051914,0.00006622,0.00000004,-0.00014703,0.00008256
 ,-0.00000017,0.00049154,-0.00022407,0.,0.34381980,0.00065962,0.0004717
 9,0.00000002,0.00574201,-0.00880601,0.00000130,0.00017327,0.00007109,0
 .,0.14535463,-0.13482845,-0.00003019,0.00027166,0.00011370,0.00000002,
 -0.00135422,0.00175111,0.00000001,-0.00051666,-0.00002327,0.00000016,0
 .00037672,-0.00027892,-0.00000003,0.00025121,-0.00020982,0.00000004,0.
 00063097,0.00079991,-0.00000007,0.00039449,-0.00071599,-0.00000002,0.0
 0143737,0.00004067,0.00000043,-0.00145708,0.00006237,-0.00000004,-0.00
 909852,-0.00014995,-0.00000112,-0.00011645,-0.00022887,0.00000011,0.04
 065657,-0.03860713,-0.00000861,0.00039133,0.00014695,-0.00000023,0.000
 19948,0.00050217,-0.00000010,-0.00019884,-0.00018563,-0.00000014,-0.00
 429092,-0.00474020,-0.00000119,0.00180868,-0.00099923,-0.00000026,-0.0
 0033051,0.00025527,0.00000027,-0.00001937,0.00005515,0.00000006,-0.000
 05505,-0.00001041,0.00000001,-0.00021747,-0.00002565,-0.00000003,-0.18
 291645,0.18639919,0.00000005,0.00000015,0.00003866,0.00000177,0.000001
 55,-0.00771374,0.00000008,0.00000012,-0.00008731,0.00005533,-0.0000375
 2,-0.01278203,0.00000016,0.00000010,-0.00002775,-0.00000053,-0.0000002
 7,0.00027975,-0.00000041,0.00000008,-0.00060931,0.00000013,-0.00000007
 ,-0.00000253,0.00000028,0.00000011,-0.00011857,-0.00000144,0.00000068,
 0.00007468,0.00000013,0.00000122,0.00163929,0.00000041,-0.00000056,-0.
 00102498,-0.00000013,-0.00000013,-0.00007629,0.00000128,-0.00000302,0.
 00004527,0.00000004,0.00000005,0.00005832,0.00000549,-0.00000212,-0.00
 036838,-0.00000008,0.00000004,0.00024186,-0.00000061,-0.00000003,0.000
 12257,-0.00000012,-0.00000009,0.00009585,0.00000009,-0.00000056,0.0018
 7178,0.00000076,0.00000037,0.00165129,-0.00000004,0.00000012,-0.000238
 98,-0.00000020,-0.00000002,-0.00000085,-0.00000001,0.,0.00009736,-0.00
 000004,-0.00000005,0.00005338,-0.00006273,0.00003958,0.01761696,0.0016
 9980,0.00054296,0.00000032,0.00010859,0.00033200,0.,-0.00043655,0.0018
 9638,-0.00000010,0.00007136,0.00024230,0.00000005,-0.05234510,0.081743
 87,0.00000326,0.00034131,0.00016802,0.00000001,0.00021673,-0.00009310,
 -0.00000001,-0.00018150,0.00162634,0.00000013,0.00106050,-0.00031457,0
 .00000006,-0.00007184,-0.00006902,0.00000005,-0.00038151,0.00052163,0.
 00000007,0.00040100,0.00008904,-0.00000003,-0.00102750,-0.00044944,-0.
 00000004,-0.00008411,-0.00009344,0.00000005,-0.00434129,-0.00866966,-0
 .00000149,0.00019603,-0.00025225,-0.00000008,0.00168711,-0.00124794,-0
 .00000019,0.00004173,0.00010879,-0.00000002,-0.00118849,-0.04751494,-0
 .00000454,-0.00034085,-0.00002598,0.,-0.00023940,0.00012797,0.00000003
 ,-0.00810784,-0.00264711,-0.00000068,-0.00037177,-0.00011282,-0.000000
 02,-0.00006018,0.00001009,0.,-0.00122053,0.00238012,0.00000044,-0.0000
 4405,-0.00005403,-0.00000003,0.06449478,-0.00067929,-0.00095786,-0.000
 00027,0.00055393,0.00068313,0.,-0.00021748,-0.00264190,-0.00000021,0.0
 0021373,0.00008864,0.00000005,0.03351883,-0.50993418,-0.00004402,0.000
 13843,0.00003694,0.,0.00034107,-0.00019800,-0.00000002,-0.00085633,0.0
 0071184,0.00000002,-0.00072299,-0.00213912,-0.00000007,0.00060626,-0.0
 0025267,-0.00000016,0.00238601,0.00064103,0.00000014,-0.00005516,0.000
 06484,0.00000004,0.00018872,0.00125749,0.00000015,-0.00219435,-0.00082
 136,0.00000003,0.00499301,0.00550202,0.00000086,-0.00032310,-0.0001771
 6,-0.00000006,-0.00151164,-0.00121042,-0.00000042,0.00028284,0.0000100
 4,-0.00000003,-0.00932795,-0.02470315,-0.00000303,-0.00006826,-0.00017
 781,0.,-0.00032597,0.00012439,0.00000002,0.00050976,0.00286182,0.00000
 035,-0.00006480,0.00008305,0.00000002,0.00002377,0.00000572,0.00000001
 ,0.00100795,-0.00075663,0.00000020,-0.00022791,-0.00002295,-0.00000005
 ,-0.02815678,0.53203124,-0.00000002,-0.00000007,-0.00004115,0.00000007
 ,0.00000008,-0.00001434,-0.00000024,-0.00000030,-0.00067873,0.00000002
 ,0.,-0.00000713,-0.00000078,-0.00004015,-0.00624947,0.00000003,0.00000
 002,-0.00002652,0.00000005,-0.00000002,-0.00000521,-0.00000008,0.00000
 009,-0.00055155,0.00000005,0.,-0.00153949,0.00000003,-0.00000009,0.000
 41863,0.00000020,-0.00000003,0.00013777,0.00000003,0.00000001,-0.00021
 190,-0.00000005,0.00000004,0.00026782,-0.00000016,-0.00000009,-0.00002
 562,0.00000009,-0.00000009,0.00243933,-0.00000002,0.00000005,-0.000284
 14,-0.00000029,-0.00000037,0.00167775,0.00000003,0.,0.00008970,-0.0000
 0144,-0.00000615,-0.00078349,0.,-0.00000005,0.00015067,-0.00000004,0.0
 0000004,-0.00003729,-0.00000030,0.00000029,0.00007977,-0.00000002,0.00
 000003,-0.00022814,0.,0.,-0.00000067,0.00000018,0.00000032,-0.00151089
 ,-0.00000003,0.,0.00001279,0.00000274,0.00004648,0.00657752,0.00012740
 ,0.00034565,0.00000003,0.00160697,0.00051407,0.00000031,0.00007281,0.0
 0024270,0.00000004,0.00305751,0.00084869,-0.00000059,0.00036515,0.0001
 9944,0.00000005,-0.04827752,0.06118635,0.00000564,0.00038089,0.0019145
 0,0.00000018,0.00020042,-0.00012578,0.,-0.00005075,-0.00008952,0.00000
 004,0.00095094,-0.00038794,-0.00000009,0.00044444,0.00010970,0.0000000
 5,-0.00023324,0.00054817,0.00000008,-0.00017248,-0.00014014,-0.0000001
 0,-0.00101722,-0.00043765,-0.00000015,0.00020401,-0.00026871,0.0000000
 2,-0.00340679,-0.00774661,-0.00000091,0.00000631,0.00009968,0.00000005
 ,0.00168252,-0.00143141,-0.00000010,-0.00039338,-0.00007972,-0.0000000
 6,-0.00202059,-0.04685467,-0.00000402,-0.00870031,-0.00199758,-0.00000
 021,-0.00018817,0.00020228,0.,-0.00005555,-0.00000387,0.,-0.00040941,-
 0.00010768,0.00000002,-0.00005032,-0.00005555,-0.00000002,-0.00114572,
 0.00223377,0.00000039,-0.00004051,-0.00005546,-0.00000001,0.05658049,0
 .00051180,0.00055298,0.00000007,-0.00068698,-0.00099909,-0.00000035,0.
 00019109,0.00007105,0.,-0.00208598,-0.00219325,0.,0.00013270,0.0000430
 1,0.00000001,0.01353229,-0.51790320,-0.00004786,-0.00068788,0.00088566
 ,0.00000004,0.00028869,-0.00021107,0.,0.00055825,-0.00021909,0.0000000
 2,-0.00023975,-0.00186640,-0.00000027,-0.00002901,0.00003494,-0.000000
 06,0.00206227,0.00044812,0.00000005,-0.00193013,-0.00068232,-0.0000002
 3,0.00007711,0.00133397,0.00000037,-0.00027778,-0.00016334,0.00000003,
 0.00422614,0.00604915,0.00000032,0.00024816,0.00000763,0.00000003,-0.0
 0128932,-0.00104668,-0.00000015,-0.00007953,-0.00015388,-0.00000003,-0
 .00852384,-0.02065071,-0.00000163,0.00066983,0.00222902,0.00000005,-0.
 00028895,0.00011200,-0.00000004,0.00002635,-0.00000572,0.,-0.00005004,
 0.00008812,0.00000004,-0.00020832,-0.00002076,-0.00000001,0.00093908,-
 0.00076791,0.00000026,-0.00005214,-0.00000786,0.,-0.00701456,0.5354862
 0,0.00000005,0.00000006,-0.00001633,-0.00000021,-0.00000011,-0.0000395
 9,0.00000002,0.,-0.00001147,-0.00000060,-0.00000027,-0.00140535,0.,0.,
 -0.00001642,0.00000177,-0.00004806,-0.00434830,-0.00000012,-0.00000011
 ,0.00053662,0.00000004,0.,-0.00002439,0.00000006,-0.00000004,0.0001985
 5,-0.00000006,-0.00000002,-0.00100024,0.00000004,0.00000001,-0.0000527
 1,0.00000027,-0.00000003,0.00009355,-0.00000020,-0.00000005,-0.0000903
 5,-0.00000006,0.00000010,-0.00003387,-0.00000005,-0.00000002,-0.000084
 29,0.00000053,0.00000066,0.00300527,0.,0.00000003,0.00002756,-0.000000
 21,-0.00000027,0.00141395,0.00000002,-0.00000004,0.00002288,-0.0000012
 9,-0.00000167,-0.00209973,0.00000035,0.00000038,0.00040273,-0.00000002
 ,-0.00000002,0.00002496,0.,0.,0.00000713,-0.00000001,0.00000003,-0.000
 21675,-0.00000003,0.,0.00001360,0.00000022,0.00000005,-0.00101084,0.,0
 .,0.00001925,-0.00000045,0.00004928,0.00568838,0.00033369,0.00024325,0
 .00000003,0.00037244,-0.00068134,0.00000005,0.00012627,0.00021765,0.00
 000005,0.00058642,-0.00126641,-0.00000021,0.00036308,0.00019662,0.0000
 0005,-0.00105166,-0.00043168,0.,-0.34816461,-0.20271946,-0.00001282,0.
 00026288,-0.00018429,0.,0.00014360,-0.00022652,-0.00000004,0.00180778,
 -0.00063177,-0.00000005,0.00039357,0.00011747,0.00000005,-0.00081642,-
 0.00079301,-0.00000013,-0.00086849,0.00009190,0.,-0.00148759,0.0010093
 5,0.,-0.00000863,-0.00025437,-0.00000003,-0.00273227,0.00052075,0.0000
 0014,-0.00000723,0.00007575,0.00000002,-0.00076397,0.00490090,0.000000
 57,-0.00034541,-0.00020230,-0.00000003,0.00215011,-0.00138161,-0.00000
 016,-0.04104905,-0.01740328,-0.00000106,-0.00020778,0.00028636,0.,-0.0
 0003398,-0.00000724,0.,0.00011768,0.00000154,0.00000001,-0.00011646,-0
 .00005411,-0.00000003,-0.00014094,0.00007554,0.00000002,-0.00005154,-0
 .00005391,-0.00000001,0.00053439,0.00000264,-0.00000003,0.39070381,-0.
 00021994,-0.00037209,-0.00000003,-0.00012008,-0.00056840,-0.00000007,-
 0.00006481,-0.00004943,-0.00000002,-0.00059978,-0.00006095,-0.00000002
 ,0.00000163,0.00000255,0.,-0.00270676,0.00043348,0.00000011,-0.2519463
 5,-0.21902153,-0.00001674,-0.00005198,0.00002838,0.,-0.00007839,0.0001
 3853,0.,0.00139406,-0.00034076,0.00000003,0.00006019,-0.00003712,0.000
 00005,-0.00090667,0.00095292,-0.00000013,0.00107134,0.00018436,-0.0000
 0003,-0.00073823,0.00068138,0.00000005,0.00010265,0.00003785,0.0000000
 3,-0.00220356,0.00095830,0.00000023,-0.00013053,0.00000771,-0.00000002
 ,0.00561821,-0.00312176,-0.00000050,0.00001133,0.00000125,0.,0.0116583
 1,-0.00098406,-0.00000048,0.02241394,0.01794311,0.00000150,0.00008831,
 0.00004981,0.,-0.00000743,0.00000195,0.,0.00007968,0.00006517,0.000000
 07,0.00005942,0.00001100,0.,0.00037932,-0.00016491,0.00000003,0.000012
 63,0.00000078,0.,-0.00168488,-0.00050644,0.00000011,0.21850541,0.20373
 324,-0.00000002,-0.00000002,0.00000169,-0.00000003,-0.00000003,-0.0000
 0432,0.,0.,-0.00003376,-0.00000006,-0.00000006,0.00006699,-0.00000001,
 0.,0.00000799,-0.00000024,0.00000011,-0.00083094,-0.00001755,-0.000017
 55,-0.00608525,-0.00000001,0.,-0.00001469,0.,0.00000002,-0.00013208,0.
 00000008,0.00000009,-0.00021784,-0.00000002,0.,-0.00008307,0.00000005,
 -0.00000026,0.00166356,0.00000010,-0.00000004,0.00019214,-0.00000003,0
 .00000007,-0.00001408,0.00000002,0.00000004,0.00016659,-0.00000026,0.0
 0000015,-0.00092598,0.,-0.00000003,0.00002777,0.00000025,-0.00000042,0
 .00098678,0.00000002,0.00000003,-0.00012256,0.00000129,-0.00000023,0.0
 0188647,0.00000292,0.00000225,-0.00191231,0.,0.,0.00006315,0.,0.,0.000
 00881,0.,0.00000007,-0.00046446,0.,0.,0.00003001,0.00000005,-0.0000000
 4,0.00011990,0.,0.,-0.00000433,-0.00000020,0.00000005,-0.00102569,0.00
 001363,0.00001581,0.00664721,0.00007858,-0.00041437,-0.00000002,0.0005
 5863,-0.00010478,0.00000001,-0.00057766,-0.00016968,-0.00000002,0.0001
 6989,0.00009706,0.00000004,0.00011586,-0.00124104,0.,0.00019099,0.0000
 6962,0.,0.00025319,-0.00012852,-0.00000002,-0.07001434,-0.13971104,-0.
 00001945,-0.00016475,-0.00097704,0.,0.00035464,-0.00010510,0.00000004,
 -0.00057784,0.00056949,0.00000007,-0.00003426,0.00016836,-0.00000006,-
 0.00042498,0.00019820,-0.00000006,-0.00073015,0.00021719,-0.00000006,0
 .00205906,0.00118573,0.00000007,-0.00004710,-0.00018402,-0.00000009,0.
 00193463,0.00255464,0.00000063,0.00020235,-0.00001288,0.00000002,-0.00
 728786,0.00313238,-0.00000024,-0.00015914,-0.00005623,0.00000003,-0.00
 029913,0.00006124,0.,0.00371678,0.04635461,0.00000477,-0.00153858,-0.0
 0184206,-0.00000031,-0.00000349,0.00000250,0.,0.00011467,0.00019007,0.
 00000003,-0.00020089,-0.00003176,-0.00000004,0.00021565,0.00007708,-0.
 00000001,-0.00005229,-0.00002219,0.,-0.00004968,0.00000294,0.,0.072197
 22,-0.00027109,0.00065782,0.00000007,-0.00019637,-0.00062012,0.0000000
 7,0.00028966,0.00023705,0.00000008,-0.00008854,-0.00028442,-0.00000003
 ,0.00117690,0.00100113,0.00000024,-0.00030674,-0.00015362,-0.00000001,
 -0.00020413,0.00010046,0.00000001,-0.08750682,-0.51057433,-0.00005909,
 -0.00166403,0.00076051,-0.00000007,-0.00023029,-0.00003757,0.00000001,
 -0.00044052,-0.00111678,0.00000010,-0.00029798,-0.00007489,-0.00000004
 ,0.00141689,-0.00092820,-0.00000011,0.00039818,0.00087026,-0.00000002,
 0.00057125,-0.00145041,-0.00000027,-0.00001952,0.00034579,0.00000003,-
 0.00383392,0.00511713,0.00000022,0.00002956,-0.00008024,0.00000006,0.0
 0157911,0.00146790,0.00000007,0.00025165,0.00011196,0.00000003,0.00016
 362,-0.00018645,-0.00000006,-0.00188965,-0.02834205,-0.00000276,0.0009
 2692,-0.00011535,-0.00000006,0.00003278,-0.00000288,0.,-0.00009860,-0.
 00015284,-0.00000001,0.00005814,0.00009589,0.00000001,-0.00004894,-0.0
 0010191,-0.00000003,0.00003672,0.00005587,0.,0.00004615,-0.00000429,0.
 ,0.09011960,0.53340458,0.,0.,-0.00002093,0.00000002,-0.00000006,-0.000
 10196,0.00000001,0.00000008,-0.00049247,0.,-0.00000001,-0.00005415,0.0
 0000010,0.00000009,-0.00075419,0.,0.,-0.00001766,0.,0.,-0.00000654,-0.
 00001386,-0.00006319,-0.00262399,0.,0.,0.00017583,-0.00000002,0.000000
 05,-0.00017766,-0.00000004,0.00000013,-0.00209425,-0.00000002,-0.00000
 008,0.00053637,0.00000003,-0.00000007,-0.00006612,-0.00000003,0.000000
 10,0.00009927,-0.00000008,-0.00000019,0.00233975,0.00000001,-0.0000000
 3,0.00021369,-0.00000016,0.00000073,-0.00016199,0.,0.00000003,-0.00028
 690,-0.00000037,0.00000014,0.00087816,0.,0.00000002,-0.00015679,0.,0.,
 0.00017080,-0.00000021,0.00000086,-0.00092989,-0.00000004,-0.00000021,
 0.00058115,0.,0.,0.00000353,0.,0.00000003,-0.00005568,0.,0.00000001,0.
 00004182,0.00000002,-0.00000002,0.00032906,0.,0.,0.00002191,0.,0.,0.00
 000233,0.00001465,0.00006159,0.00260749\\-0.00001324,-0.00000147,0.000
 00504,-0.00002047,0.00001025,-0.00002711,0.00002753,-0.00001200,0.0000
 0122,0.00002324,-0.00001372,-0.00000292,0.00001185,0.00000683,-0.00000
 010,-0.00000116,-0.00000405,0.00000041,-0.00000183,0.00001560,-0.00000
 027,-0.00000288,0.00001009,0.00000047,0.00000659,-0.00000075,-0.000002
 00,-0.00001198,0.00000172,-0.00001398,-0.00000618,0.00000772,-0.000013
 20,0.00001687,-0.00001310,-0.00000424,0.00000177,-0.00000278,-0.000006
 75,0.00000026,-0.00001112,0.00005769,0.00000495,0.00001596,0.00000332,
 -0.00000203,0.00001596,-0.00000189,0.00001259,-0.00001351,-0.00000107,
 -0.00000273,0.00001036,0.00000232,-0.00001232,-0.00001008,-0.00000002,
 -0.00001148,0.00000067,-0.00000003,0.00000315,-0.00000585,0.00000049,-
 0.00000081,0.00000266,-0.00000045,0.00000331,0.00000437,-0.00000021,-0
 .00000142,-0.00000176,0.00000072,-0.00000337,0.00000053,-0.00000386,-0
 .00000444,-0.00000271,0.00000650,-0.00000323,0.00000719,0.00000035,-0.
 00000280,-0.00000181,-0.00000033,-0.00000122,-0.00000681,-0.00000006,-
 0.00000854,-0.00000839,-0.00000004\\\@


 A MAN IS NEVER SO BRILLIANT AS WHEN HE TAKES THE WORDS RIGHT OUT
 OF YOUR MOUTH. -- ARNOT SHEPPARD, JR.
 Job cpu time:       0 days 13 hours 16 minutes 54.5 seconds.
 Elapsed time:       0 days  0 hours 50 minutes  1.1 seconds.
 File lengths (MBytes):  RWF=    816 Int=      0 D2E=      0 Chk=     24 Scr=      1
 Normal termination of Gaussian 16 at Tue Sep 23 00:38:38 2025.
