 Entering Gaussian System, Link 0=g16
 Input=SAAC0157.gjf
 Output=SAAC0157.log
 Initial command:
 /usr/local/g16/l1.exe "/dados_01/scratch/Gau-2226480.inp" -scrdir="/dados_01/scratch/"
 Entering Link 1 = /usr/local/g16/l1.exe PID=   2226481.
  
 Copyright (c) 1988-2017, Gaussian, Inc.  All Rights Reserved.
  
 This is part of the Gaussian(R) 16 program.  It is based on
 the Gaussian(R) 09 system (copyright 2009, Gaussian, Inc.),
 the Gaussian(R) 03 system (copyright 2003, Gaussian, Inc.),
 the Gaussian(R) 98 system (copyright 1998, Gaussian, Inc.),
 the Gaussian(R) 94 system (copyright 1995, Gaussian, Inc.),
 the Gaussian 92(TM) system (copyright 1992, Gaussian, Inc.),
 the Gaussian 90(TM) system (copyright 1990, Gaussian, Inc.),
 the Gaussian 88(TM) system (copyright 1988, Gaussian, Inc.),
 the Gaussian 86(TM) system (copyright 1986, Carnegie Mellon
 University), and the Gaussian 82(TM) system (copyright 1983,
 Carnegie Mellon University). Gaussian is a federally registered
 trademark of Gaussian, Inc.
  
 This software contains proprietary and confidential information,
 including trade secrets, belonging to Gaussian, Inc.
  
 This software is provided under written license and may be
 used, copied, transmitted, or stored only in accord with that
 written license.
  
 The following legend is applicable only to US Government
 contracts under FAR:
  
                    RESTRICTED RIGHTS LEGEND
  
 Use, reproduction and disclosure by the US Government is
 subject to restrictions as set forth in subparagraphs (a)
 and (c) of the Commercial Computer Software - Restricted
 Rights clause in FAR 52.227-19.
  
 Gaussian, Inc.
 340 Quinnipiac St., Bldg. 40, Wallingford CT 06492
  
  
 ---------------------------------------------------------------
 Warning -- This program may not be used in any manner that
 competes with the business of Gaussian, Inc. or will provide
 assistance to any competitor of Gaussian, Inc.  The licensee
 of this program is prohibited from giving any competitor of
 Gaussian, Inc. access to this program.  By using this program,
 the user acknowledges that Gaussian, Inc. is engaged in the
 business of creating and licensing software in the field of
 computational chemistry and represents and warrants to the
 licensee that it is not a competitor of Gaussian, Inc. and that
 it will not use this program in any manner prohibited above.
 ---------------------------------------------------------------
  

 Cite this work as:
 Gaussian 16, Revision B.01,
 M. J. Frisch, G. W. Trucks, H. B. Schlegel, G. E. Scuseria, 
 M. A. Robb, J. R. Cheeseman, G. Scalmani, V. Barone, 
 G. A. Petersson, H. Nakatsuji, X. Li, M. Caricato, A. V. Marenich, 
 J. Bloino, B. G. Janesko, R. Gomperts, B. Mennucci, H. P. Hratchian, 
 J. V. Ortiz, A. F. Izmaylov, J. L. Sonnenberg, D. Williams-Young, 
 F. Ding, F. Lipparini, F. Egidi, J. Goings, B. Peng, A. Petrone, 
 T. Henderson, D. Ranasinghe, V. G. Zakrzewski, J. Gao, N. Rega, 
 G. Zheng, W. Liang, M. Hada, M. Ehara, K. Toyota, R. Fukuda, 
 J. Hasegawa, M. Ishida, T. Nakajima, Y. Honda, O. Kitao, H. Nakai, 
 T. Vreven, K. Throssell, J. A. Montgomery, Jr., J. E. Peralta, 
 F. Ogliaro, M. J. Bearpark, J. J. Heyd, E. N. Brothers, K. N. Kudin, 
 V. N. Staroverov, T. A. Keith, R. Kobayashi, J. Normand, 
 K. Raghavachari, A. P. Rendell, J. C. Burant, S. S. Iyengar, 
 J. Tomasi, M. Cossi, J. M. Millam, M. Klene, C. Adamo, R. Cammi, 
 J. W. Ochterski, R. L. Martin, K. Morokuma, O. Farkas, 
 J. B. Foresman, and D. J. Fox, Gaussian, Inc., Wallingford CT, 2016.
 
 ******************************************
 Gaussian 16:  ES64L-G16RevB.01 20-Dec-2017
                23-Sep-2025 
 ******************************************
 %nprocs=16
 Will use up to   16 processors via shared memory.
 %mem=40GB
 %chk=SAAC0157.chk
 ----------------------------------------------------------------------
 # opt freq=noraman M08HX/6-311++G** scf=xqc Empiricaldispersion=pfd In
 t(Grid=ultraFine)
 ----------------------------------------------------------------------
 1/18=20,19=15,26=4,38=1/1,3;
 2/9=110,12=2,17=6,18=5,40=1/2;
 3/5=4,6=6,7=1111,11=2,25=1,30=1,71=1,74=-74,75=-5,124=11/1,2,3;
 4//1;
 5/5=2,8=3,13=1,38=5/2,8;
 6/7=2,8=2,9=2,10=2,28=1/1;
 7//1,2,3,16;
 1/18=20,19=15,26=4/3(2);
 2/9=110/2;
 99//99;
 2/9=110/2;
 3/5=4,6=6,7=1111,11=2,25=1,30=1,71=1,74=-74,75=-5,124=11/1,2,3;
 4/5=5,16=3,69=1/1;
 5/5=2,8=3,13=1,38=5/2,8;
 7//1,2,3,16;
 1/18=20,19=15,26=4/3(-5);
 2/9=110/2;
 6/7=2,8=2,9=2,10=2,19=2,28=1/1;
 99/9=1/99;
 --------
 SAAC0157
 --------
 Symbolic Z-matrix:
 Charge =  0 Multiplicity = 1
 O                     0.2626   -2.1794   -0.1866 
 O                     2.2319    1.3945   -0.4792 
 O                     2.4659   -0.6561    0.473 
 C                     0.279     0.2094    0.0344 
 C                    -0.4094   -0.9983   -0.0809 
 C                    -0.4275    1.4075    0.1399 
 C                    -1.8043   -1.0077   -0.0907 
 C                    -1.8223    1.3979    0.13 
 C                    -2.5108    0.1904    0.0146 
 C                     1.7349    0.2418    0.0455 
 H                     0.0796    2.3632    0.2437 
 H                    -2.3539   -1.941    -0.1801 
 H                    -2.3728    2.3304    0.215 
 H                    -3.5968    0.1831    0.0077 
 H                    -0.3805   -2.9057   -0.2573 
 H                     3.2128    1.4077   -0.4679 
 

 GradGradGradGradGradGradGradGradGradGradGradGradGradGradGradGradGradGrad
 Berny optimization.
 Initialization pass.
                           ----------------------------
                           !    Initial Parameters    !
                           ! (Angstroms and Degrees)  !
 --------------------------                            --------------------------
 ! Name  Definition              Value          Derivative Info.                !
 --------------------------------------------------------------------------------
 ! R1    R(1,5)                  1.363          estimate D2E/DX2                !
 ! R2    R(1,15)                 0.9727         estimate D2E/DX2                !
 ! R3    R(2,10)                 1.3605         estimate D2E/DX2                !
 ! R4    R(2,16)                 0.9811         estimate D2E/DX2                !
 ! R5    R(3,10)                 1.2342         estimate D2E/DX2                !
 ! R6    R(4,5)                  1.3949         estimate D2E/DX2                !
 ! R7    R(4,6)                  1.3949         estimate D2E/DX2                !
 ! R8    R(4,10)                 1.4563         estimate D2E/DX2                !
 ! R9    R(5,7)                  1.395          estimate D2E/DX2                !
 ! R10   R(6,8)                  1.3949         estimate D2E/DX2                !
 ! R11   R(6,11)                 1.0869         estimate D2E/DX2                !
 ! R12   R(7,9)                  1.3949         estimate D2E/DX2                !
 ! R13   R(7,12)                 1.0868         estimate D2E/DX2                !
 ! R14   R(8,9)                  1.3948         estimate D2E/DX2                !
 ! R15   R(8,13)                 1.0862         estimate D2E/DX2                !
 ! R16   R(9,14)                 1.086          estimate D2E/DX2                !
 ! A1    A(5,1,15)             109.0696         estimate D2E/DX2                !
 ! A2    A(10,2,16)            111.8513         estimate D2E/DX2                !
 ! A3    A(5,4,6)              119.9964         estimate D2E/DX2                !
 ! A4    A(5,4,10)             120.8819         estimate D2E/DX2                !
 ! A5    A(6,4,10)             119.1217         estimate D2E/DX2                !
 ! A6    A(1,5,4)              120.8872         estimate D2E/DX2                !
 ! A7    A(1,5,7)              119.119          estimate D2E/DX2                !
 ! A8    A(4,5,7)              119.9938         estimate D2E/DX2                !
 ! A9    A(4,6,8)              120.0012         estimate D2E/DX2                !
 ! A10   A(4,6,11)             121.7471         estimate D2E/DX2                !
 ! A11   A(8,6,11)             118.2471         estimate D2E/DX2                !
 ! A12   A(5,7,9)              120.0103         estimate D2E/DX2                !
 ! A13   A(5,7,12)             120.8007         estimate D2E/DX2                !
 ! A14   A(9,7,12)             119.1891         estimate D2E/DX2                !
 ! A15   A(6,8,9)              120.0098         estimate D2E/DX2                !
 ! A16   A(6,8,13)             120.0214         estimate D2E/DX2                !
 ! A17   A(9,8,13)             119.9685         estimate D2E/DX2                !
 ! A18   A(7,9,8)              119.9885         estimate D2E/DX2                !
 ! A19   A(7,9,14)             120.0147         estimate D2E/DX2                !
 ! A20   A(8,9,14)             119.9967         estimate D2E/DX2                !
 ! A21   A(2,10,3)             122.2483         estimate D2E/DX2                !
 ! A22   A(2,10,4)             112.4024         estimate D2E/DX2                !
 ! A23   A(3,10,4)             125.3493         estimate D2E/DX2                !
 ! D1    D(15,1,5,4)          -179.9902         estimate D2E/DX2                !
 ! D2    D(15,1,5,7)            -0.0656         estimate D2E/DX2                !
 ! D3    D(16,2,10,3)           -0.0529         estimate D2E/DX2                !
 ! D4    D(16,2,10,4)         -179.9901         estimate D2E/DX2                !
 ! D5    D(6,4,5,1)            179.9249         estimate D2E/DX2                !
 ! D6    D(6,4,5,7)              0.0009         estimate D2E/DX2                !
 ! D7    D(10,4,5,1)            -0.0211         estimate D2E/DX2                !
 ! D8    D(10,4,5,7)          -179.9451         estimate D2E/DX2                !
 ! D9    D(5,4,6,8)             -0.0048         estimate D2E/DX2                !
 ! D10   D(5,4,6,11)           179.2099         estimate D2E/DX2                !
 ! D11   D(10,4,6,8)           179.9422         estimate D2E/DX2                !
 ! D12   D(10,4,6,11)           -0.8432         estimate D2E/DX2                !
 ! D13   D(5,4,10,2)           149.8821         estimate D2E/DX2                !
 ! D14   D(5,4,10,3)           -30.0528         estimate D2E/DX2                !
 ! D15   D(6,4,10,2)           -30.0644         estimate D2E/DX2                !
 ! D16   D(6,4,10,3)           150.0008         estimate D2E/DX2                !
 ! D17   D(1,5,7,9)           -179.9168         estimate D2E/DX2                !
 ! D18   D(1,5,7,12)             0.0634         estimate D2E/DX2                !
 ! D19   D(4,5,7,9)              0.0086         estimate D2E/DX2                !
 ! D20   D(4,5,7,12)           179.9887         estimate D2E/DX2                !
 ! D21   D(4,6,8,9)             -0.0008         estimate D2E/DX2                !
 ! D22   D(4,6,8,13)           179.8246         estimate D2E/DX2                !
 ! D23   D(11,6,8,9)          -179.2426         estimate D2E/DX2                !
 ! D24   D(11,6,8,13)            0.5827         estimate D2E/DX2                !
 ! D25   D(5,7,9,8)             -0.0141         estimate D2E/DX2                !
 ! D26   D(5,7,9,14)          -179.9558         estimate D2E/DX2                !
 ! D27   D(12,7,9,8)          -179.9946         estimate D2E/DX2                !
 ! D28   D(12,7,9,14)            0.0637         estimate D2E/DX2                !
 ! D29   D(6,8,9,7)              0.0103         estimate D2E/DX2                !
 ! D30   D(6,8,9,14)           179.9519         estimate D2E/DX2                !
 ! D31   D(13,8,9,7)          -179.8152         estimate D2E/DX2                !
 ! D32   D(13,8,9,14)            0.1265         estimate D2E/DX2                !
 --------------------------------------------------------------------------------
 Trust Radius=3.00D-01 FncErr=1.00D-07 GrdErr=1.00D-06 EigMax=2.50D+02 EigMin=1.00D-04
 Number of steps in this run=     81 maximum allowed number of steps=    100.
 GradGradGradGradGradGradGradGradGradGradGradGradGradGradGradGradGradGrad

                          Input orientation:                          
 ---------------------------------------------------------------------
 Center     Atomic      Atomic             Coordinates (Angstroms)
 Number     Number       Type             X           Y           Z
 ---------------------------------------------------------------------
      1          8           0        0.262600   -2.179400   -0.186600
      2          8           0        2.231900    1.394500   -0.479200
      3          8           0        2.465900   -0.656100    0.473000
      4          6           0        0.279000    0.209400    0.034400
      5          6           0       -0.409400   -0.998300   -0.080900
      6          6           0       -0.427500    1.407500    0.139900
      7          6           0       -1.804300   -1.007700   -0.090700
      8          6           0       -1.822300    1.397900    0.130000
      9          6           0       -2.510800    0.190400    0.014600
     10          6           0        1.734900    0.241800    0.045500
     11          1           0        0.079600    2.363200    0.243700
     12          1           0       -2.353900   -1.941000   -0.180100
     13          1           0       -2.372800    2.330400    0.215000
     14          1           0       -3.596800    0.183100    0.007700
     15          1           0       -0.380500   -2.905700   -0.257300
     16          1           0        3.212800    1.407700   -0.467900
 ---------------------------------------------------------------------
                    Distance matrix (angstroms):
                    1          2          3          4          5
     1  O    0.000000
     2  O    4.091029   0.000000
     3  O    2.758631   2.272972   0.000000
     4  C    2.399057   2.341381   2.392487   0.000000
     5  C    1.362994   3.586168   2.948094   1.394894   0.000000
     6  C    3.667246   2.730542   3.569477   1.394889   2.415979
     7  C    2.377846   4.713004   4.321572   2.416014   1.394966
     8  C    4.152604   4.099716   4.767098   2.416016   2.789720
     9  C    3.653516   4.918018   5.068948   2.789935   2.416197
    10  C    2.843193   1.360528   1.234237   1.456303   2.480292
    11  H    4.566603   2.468473   3.855279   2.173113   3.412355
    12  H    2.627346   5.678431   5.030704   3.406229   2.163239
    13  H    5.238789   4.749851   5.691991   3.400485   3.875918
    14  H    4.529252   5.973132   6.138167   3.875981   3.400452
    15  H    0.972670   5.036427   3.700815   3.197480   1.915758
    16  H    4.652966   0.981054   2.387975   3.208646   4.365654
                    6          7          8          9         10
     6  C    0.000000
     7  C    2.789614   0.000000
     8  C    1.394868   2.415770   0.000000
     9  C    2.416024   1.394874   1.394778   0.000000
    10  C    2.458402   3.755761   3.741307   4.246124   0.000000
    11  H    1.086870   3.876064   2.135873   3.388764   2.698081
    12  H    3.876322   1.086785   3.395146   2.146018   4.640452
    13  H    2.154432   3.399935   1.086200   2.153788   4.611310
    14  H    3.400161   2.154238   2.153961   1.086046   5.332157
    15  H    4.331705   2.378522   4.555191   3.768016   3.804387
    16  H    3.690692   5.581015   5.070484   5.871475   1.951177
                   11         12         13         14         15
    11  H    0.000000
    12  H    4.962627   0.000000
    13  H    2.452787   4.289676   0.000000
    14  H    4.280707   2.468171   2.480332   0.000000
    15  H    5.312626   2.197934   5.622194   4.467158   0.000000
    16  H    3.352059   6.502674   5.702338   6.935163   5.617969
                   16
    16  H    0.000000
 Stoichiometry    C7H6O3
 Framework group  C1[X(C7H6O3)]
 Deg. of freedom    42
 Full point group                 C1      NOp   1
 Largest Abelian subgroup         C1      NOp   1
 Largest concise Abelian subgroup C1      NOp   1
                         Standard orientation:                         
 ---------------------------------------------------------------------
 Center     Atomic      Atomic             Coordinates (Angstroms)
 Number     Number       Type             X           Y           Z
 ---------------------------------------------------------------------
      1          8           0       -0.072309    2.168063   -0.166403
      2          8           0       -2.252362   -1.281336   -0.458861
      3          8           0       -2.358191    0.775883    0.501894
      4          6           0       -0.229346   -0.216369    0.046430
      5          6           0        0.528918    0.948717   -0.069058
      6          6           0        0.405307   -1.454734    0.143297
      7          6           0        1.921823    0.875239   -0.087680
      8          6           0        1.798123   -1.528007    0.124577
      9          6           0        2.556474   -0.363126    0.008987
     10          6           0       -1.684502   -0.162229    0.066659
     11          1           0       -0.157070   -2.378999    0.247007
     12          1           0        2.525380    1.774562   -0.177337
     13          1           0        2.292720   -2.491894    0.202854
     14          1           0        3.640925   -0.420354   -0.004781
     15          1           0        0.612389    2.855125   -0.238671
     16          1           0       -3.232224   -1.236261   -0.441381
 ---------------------------------------------------------------------
 Rotational constants (GHZ):           2.2886990           1.2135275           0.8157579
 Standard basis: 6-311++G(d,p) (5D, 7F)
 There are   272 symmetry adapted cartesian basis functions of A   symmetry.
 There are   262 symmetry adapted basis functions of A   symmetry.
   262 basis functions,   414 primitive gaussians,   272 cartesian basis functions
    36 alpha electrons       36 beta electrons
       nuclear repulsion energy       500.4978681197 Hartrees.
 NAtoms=   16 NActive=   16 NUniq=   16 SFac= 1.00D+00 NAtFMM=   60 NAOKFM=F Big=F
 Integral buffers will be    131072 words long.
 Raffenetti 2 integral format.
 Two-electron integral symmetry is turned on.
 R6APFD:  NTU= -4 IXU= 1 FactS= 1.050
 Nuclear repulsion after empirical dispersion term =      500.4878944961 Hartrees.
 One-electron integrals computed using PRISM.
 NBasis=   262 RedAO= T EigKep=  3.61D-06  NBF=   262
 NBsUse=   261 1.00D-06 EigRej=  8.78D-07 NBFU=   261
 ExpMin= 3.60D-02 ExpMax= 8.59D+03 ExpMxC= 1.30D+03 IAcc=3 IRadAn=         5 AccDes= 0.00D+00
 Harris functional with IExCor= 1009 and IRadAn=       5 diagonalized for initial guess.
 HarFok:  IExCor= 1009 AccDes= 0.00D+00 IRadAn=         5 IDoV= 1 UseB2=F ITyADJ=14
 ICtDFT=  3500011 ScaDFX=  1.000000  1.000000  1.000000  1.000000
 FoFCou: FMM=F IPFlag=           0 FMFlag=      100000 FMFlg1=           0
         NFxFlg=           0 DoJE=T BraDBF=F KetDBF=T FulRan=T
         wScrn=  0.000000 ICntrl=       500 IOpCl=  0 I1Cent=   200000004 NGrid=           0
         NMat0=    1 NMatS0=      1 NMatT0=    0 NMatD0=    1 NMtDS0=    0 NMtDT0=    0
 Petite list used in FoFCou.
 Requested convergence on RMS density matrix=1.00D-08 within  32 cycles.
 Requested convergence on MAX density matrix=1.00D-06.
 Requested convergence on             energy=1.00D-06.
 No special actions if energy rises.
 SCF Done:  E(RM08HX) =  -496.019415809     A.U. after   15 cycles
            NFock= 15  Conv=0.57D-08     -V/T= 2.0043
 QCSCF skips out because SCF is already converged.

 **********************************************************************

            Population analysis using the SCF Density.

 **********************************************************************

 Orbital symmetries:
       Occupied  (A) (A) (A) (A) (A) (A) (A) (A) (A) (A) (A) (A)
                 (A) (A) (A) (A) (A) (A) (A) (A) (A) (A) (A) (A)
                 (A) (A) (A) (A) (A) (A) (A) (A) (A) (A) (A) (A)
       Virtual   (A) (A) (A) (A) (A) (A) (A) (A) (A) (A) (A) (A)
                 (A) (A) (A) (A) (A) (A) (A) (A) (A) (A) (A) (A)
                 (A) (A) (A) (A) (A) (A) (A) (A) (A) (A) (A) (A)
                 (A) (A) (A) (A) (A) (A) (A) (A) (A) (A) (A) (A)
                 (A) (A) (A) (A) (A) (A) (A) (A) (A) (A) (A) (A)
                 (A) (A) (A) (A) (A) (A) (A) (A) (A) (A) (A) (A)
                 (A) (A) (A) (A) (A) (A) (A) (A) (A) (A) (A) (A)
                 (A) (A) (A) (A) (A) (A) (A) (A) (A) (A) (A) (A)
                 (A) (A) (A) (A) (A) (A) (A) (A) (A) (A) (A) (A)
                 (A) (A) (A) (A) (A) (A) (A) (A) (A) (A) (A) (A)
                 (A) (A) (A) (A) (A) (A) (A) (A) (A) (A) (A) (A)
                 (A) (A) (A) (A) (A) (A) (A) (A) (A) (A) (A) (A)
                 (A) (A) (A) (A) (A) (A) (A) (A) (A) (A) (A) (A)
                 (A) (A) (A) (A) (A) (A) (A) (A) (A) (A) (A) (A)
                 (A) (A) (A) (A) (A) (A) (A) (A) (A) (A) (A) (A)
                 (A) (A) (A) (A) (A) (A) (A) (A) (A) (A) (A) (A)
                 (A) (A) (A) (A) (A) (A) (A) (A) (A) (A) (A) (A)
                 (A) (A) (A) (A) (A) (A) (A) (A) (A) (A) (A) (A)
                 (A) (A) (A) (A) (A) (A) (A) (A) (A)
 The electronic state is 1-A.
 Alpha  occ. eigenvalues --  -19.65979 -19.65238 -19.59844 -10.67569 -10.62356
 Alpha  occ. eigenvalues --  -10.56161 -10.55962 -10.55871 -10.55391 -10.54549
 Alpha  occ. eigenvalues --   -1.22706  -1.19722  -1.12488  -0.98905  -0.89394
 Alpha  occ. eigenvalues --   -0.86191  -0.77064  -0.73749  -0.68882  -0.64443
 Alpha  occ. eigenvalues --   -0.61321  -0.57891  -0.56405  -0.54871  -0.53070
 Alpha  occ. eigenvalues --   -0.52676  -0.50234  -0.48779  -0.47577  -0.44355
 Alpha  occ. eigenvalues --   -0.43531  -0.42823  -0.39306  -0.35612  -0.33162
 Alpha  occ. eigenvalues --   -0.30111
 Alpha virt. eigenvalues --   -0.03348  -0.03244  -0.02234  -0.01672  -0.00122
 Alpha virt. eigenvalues --    0.00171   0.01394   0.02258   0.02930   0.04037
 Alpha virt. eigenvalues --    0.04492   0.05036   0.05884   0.06020   0.07733
 Alpha virt. eigenvalues --    0.08377   0.08666   0.09588   0.10268   0.10560
 Alpha virt. eigenvalues --    0.10735   0.11154   0.11791   0.12325   0.12870
 Alpha virt. eigenvalues --    0.13794   0.14278   0.14682   0.15048   0.16618
 Alpha virt. eigenvalues --    0.17400   0.18391   0.18740   0.19153   0.20791
 Alpha virt. eigenvalues --    0.21300   0.21646   0.22765   0.23072   0.23339
 Alpha virt. eigenvalues --    0.25103   0.26535   0.26993   0.27714   0.28204
 Alpha virt. eigenvalues --    0.28967   0.29314   0.30427   0.30830   0.31497
 Alpha virt. eigenvalues --    0.31895   0.32517   0.32892   0.34908   0.36216
 Alpha virt. eigenvalues --    0.36996   0.38716   0.39977   0.40505   0.41044
 Alpha virt. eigenvalues --    0.44377   0.46540   0.49446   0.51097   0.54315
 Alpha virt. eigenvalues --    0.55393   0.56178   0.56596   0.57184   0.58985
 Alpha virt. eigenvalues --    0.60103   0.61641   0.62379   0.64323   0.65120
 Alpha virt. eigenvalues --    0.65926   0.66818   0.68817   0.70757   0.71999
 Alpha virt. eigenvalues --    0.73237   0.74447   0.75297   0.77533   0.80083
 Alpha virt. eigenvalues --    0.81662   0.82822   0.85956   0.86876   0.87813
 Alpha virt. eigenvalues --    0.89802   0.90202   0.91317   0.92226   0.94706
 Alpha virt. eigenvalues --    1.01115   1.03164   1.03776   1.04559   1.05317
 Alpha virt. eigenvalues --    1.10086   1.12033   1.13501   1.13877   1.16090
 Alpha virt. eigenvalues --    1.18470   1.20156   1.21166   1.22888   1.24309
 Alpha virt. eigenvalues --    1.26304   1.27464   1.32284   1.35135   1.35894
 Alpha virt. eigenvalues --    1.42111   1.45197   1.49750   1.51085   1.53634
 Alpha virt. eigenvalues --    1.55224   1.55963   1.57659   1.58141   1.59022
 Alpha virt. eigenvalues --    1.60727   1.62518   1.63651   1.68438   1.70456
 Alpha virt. eigenvalues --    1.73915   1.76288   1.77572   1.80495   1.82431
 Alpha virt. eigenvalues --    1.84226   1.87216   1.90118   1.92618   1.94608
 Alpha virt. eigenvalues --    1.95923   1.97347   1.98880   1.99642   2.00667
 Alpha virt. eigenvalues --    2.05429   2.05578   2.07497   2.09922   2.11453
 Alpha virt. eigenvalues --    2.20057   2.25517   2.29963   2.34858   2.37965
 Alpha virt. eigenvalues --    2.44249   2.45240   2.51850   2.58562   2.60478
 Alpha virt. eigenvalues --    2.62036   2.62495   2.67886   2.69927   2.70404
 Alpha virt. eigenvalues --    2.71541   2.72338   2.76296   2.81543   2.83612
 Alpha virt. eigenvalues --    2.84077   2.86906   2.89026   2.94111   2.95978
 Alpha virt. eigenvalues --    2.98397   3.01324   3.10950   3.12717   3.15194
 Alpha virt. eigenvalues --    3.15713   3.17062   3.23785   3.25232   3.25974
 Alpha virt. eigenvalues --    3.27610   3.34401   3.41707   3.43914   3.45568
 Alpha virt. eigenvalues --    3.50631   3.55368   3.56924   3.62839   3.66604
 Alpha virt. eigenvalues --    3.73283   3.83403   3.90265   3.94446   4.06561
 Alpha virt. eigenvalues --    4.07637   4.13573   4.22122   4.23041   4.38252
 Alpha virt. eigenvalues --    4.90876   5.10448   5.12659   5.17054   5.30947
 Alpha virt. eigenvalues --    5.48300   5.57199   5.68862   5.84447   5.94716
 Alpha virt. eigenvalues --   23.61488  23.87779  23.97348  24.00563  24.10735
 Alpha virt. eigenvalues --   24.12711  24.22188  49.87757  49.96097  50.01742
          Condensed to atoms (all electrons):
               1          2          3          4          5          6
     1  O    7.965543  -0.007046  -0.010147  -0.602703   0.511012  -0.052975
     2  O   -0.007046   8.129406  -0.109177  -0.531648   0.009381   0.012726
     3  O   -0.010147  -0.109177   7.970304  -0.122754  -0.071163   0.051814
     4  C   -0.602703  -0.531648  -0.122754  17.558165  -1.739433  -0.422396
     5  C    0.511012   0.009381  -0.071163  -1.739433  14.269679  -3.961026
     6  C   -0.052975   0.012726   0.051814  -0.422396  -3.961026  12.448474
     7  C    0.242376   0.017914   0.013084  -5.518494  -0.851620   1.063332
     8  C    0.012841   0.021062   0.013513  -1.070377   1.729564  -1.485878
     9  C    0.014515   0.011470   0.009000   1.463408  -1.555612  -0.828647
    10  C   -0.116350   0.400076   0.501158  -3.729046  -1.909741  -0.841434
    11  H    0.000164  -0.021207   0.001397   0.081869   0.022059   0.427454
    12  H   -0.015732  -0.000285  -0.000602  -0.054182  -0.171429   0.047697
    13  H   -0.000165  -0.000823  -0.000311  -0.026385   0.042013  -0.034433
    14  H   -0.000916   0.000057   0.000095   0.114560   0.036357  -0.032372
    15  H    0.209786  -0.000646  -0.000225   0.234922   0.184749  -0.004055
    16  H   -0.001378   0.257340  -0.018329  -0.079880  -0.012865  -0.025807
               7          8          9         10         11         12
     1  O    0.242376   0.012841   0.014515  -0.116350   0.000164  -0.015732
     2  O    0.017914   0.021062   0.011470   0.400076  -0.021207  -0.000285
     3  O    0.013084   0.013513   0.009000   0.501158   0.001397  -0.000602
     4  C   -5.518494  -1.070377   1.463408  -3.729046   0.081869  -0.054182
     5  C   -0.851620   1.729564  -1.555612  -1.909741   0.022059  -0.171429
     6  C    1.063332  -1.485878  -0.828647  -0.841434   0.427454   0.047697
     7  C   12.374143   0.285177  -0.562982  -0.944489   0.042602   0.550229
     8  C    0.285177   7.561254  -0.315782  -0.408411  -0.087141   0.014253
     9  C   -0.562982  -0.315782   6.881701   0.592028  -0.020167  -0.017243
    10  C   -0.944489  -0.408411   0.592028  12.402301  -0.143666  -0.023133
    11  H    0.042602  -0.087141  -0.020167  -0.143666   0.406217   0.001775
    12  H    0.550229   0.014253  -0.017243  -0.023133   0.001775   0.460266
    13  H    0.030492   0.391868  -0.067092  -0.011270  -0.003505   0.001148
    14  H   -0.123161  -0.098342   0.408083  -0.000168  -0.000922  -0.008979
    15  H   -0.397495   0.001437  -0.013639   0.018057  -0.000225  -0.004210
    16  H   -0.001108  -0.011594  -0.000256   0.133382  -0.003255  -0.000031
              13         14         15         16
     1  O   -0.000165  -0.000916   0.209786  -0.001378
     2  O   -0.000823   0.000057  -0.000646   0.257340
     3  O   -0.000311   0.000095  -0.000225  -0.018329
     4  C   -0.026385   0.114560   0.234922  -0.079880
     5  C    0.042013   0.036357   0.184749  -0.012865
     6  C   -0.034433  -0.032372  -0.004055  -0.025807
     7  C    0.030492  -0.123161  -0.397495  -0.001108
     8  C    0.391868  -0.098342   0.001437  -0.011594
     9  C   -0.067092   0.408083  -0.013639  -0.000256
    10  C   -0.011270  -0.000168   0.018057   0.133382
    11  H   -0.003505  -0.000922  -0.000225  -0.003255
    12  H    0.001148  -0.008979  -0.004210  -0.000031
    13  H    0.411110  -0.005770   0.000118   0.000123
    14  H   -0.005770   0.417318   0.001305  -0.000051
    15  H    0.000118   0.001305   0.474633  -0.000133
    16  H    0.000123  -0.000051  -0.000133   0.435625
 Mulliken charges:
               1
     1  O   -0.148826
     2  O   -0.188599
     3  O   -0.227656
     4  C    0.444373
     5  C   -0.531926
     6  C   -0.362474
     7  C   -0.219999
     8  C   -0.553444
     9  C    0.001216
    10  C    0.080705
    11  H    0.296551
    12  H    0.220458
    13  H    0.272880
    14  H    0.292906
    15  H    0.295620
    16  H    0.328216
 Sum of Mulliken charges =  -0.00000
 Mulliken charges with hydrogens summed into heavy atoms:
               1
     1  O    0.146794
     2  O    0.139617
     3  O   -0.227656
     4  C    0.444373
     5  C   -0.531926
     6  C   -0.065923
     7  C    0.000458
     8  C   -0.280564
     9  C    0.294121
    10  C    0.080705
 Electronic spatial extent (au):  <R**2>=           1351.6442
 Charge=              0.0000 electrons
 Dipole moment (field-independent basis, Debye):
    X=              2.8971    Y=             -0.8626    Z=             -0.7490  Tot=              3.1142
 Quadrupole moment (field-independent basis, Debye-Ang):
   XX=            -50.0571   YY=            -50.8959   ZZ=            -61.7201
   XY=              9.8390   XZ=              2.2938   YZ=             -2.7823
 Traceless Quadrupole moment (field-independent basis, Debye-Ang):
   XX=              4.1673   YY=              3.3285   ZZ=             -7.4957
   XY=              9.8390   XZ=              2.2938   YZ=             -2.7823
 Octapole moment (field-independent basis, Debye-Ang**2):
  XXX=            -18.9008  YYY=             21.2890  ZZZ=             -1.3114  XYY=             13.9650
  XXY=            -18.2062  XXZ=            -10.7739  XZZ=            -10.3246  YZZ=              3.7592
  YYZ=             -1.0956  XYZ=              0.6323
 Hexadecapole moment (field-independent basis, Debye-Ang**3):
 XXXX=           -906.9262 YYYY=           -480.3750 ZZZZ=            -86.7566 XXXY=             83.3757
 XXXZ=             34.4005 YYYX=             40.6635 YYYZ=            -12.4254 ZZZX=              0.7146
 ZZZY=              1.7019 XXYY=           -253.7485 XXZZ=           -209.8990 YYZZ=           -119.3828
 XXYZ=             -3.7555 YYXZ=             -0.5627 ZZXY=              6.4019
 N-N= 5.004878944961D+02 E-N=-2.161096124604D+03  KE= 4.939135169226D+02
 R6APFD:  NTU= -4 IXU= 1 FactS= 1.050
 Calling FoFJK, ICntrl=      2127 FMM=F ISym2X=0 I1Cent= 0 IOpClX= 0 NMat=1 NMatS=1 NMatT=0.
 ***** Axes restored to original set *****
 -------------------------------------------------------------------
 Center     Atomic                   Forces (Hartrees/Bohr)
 Number     Number              X              Y              Z
 -------------------------------------------------------------------
      1        8          -0.007966497    0.001554785   -0.000778079
      2        8           0.007575886   -0.001813555    0.001889032
      3        8          -0.028674362    0.038434785   -0.018623263
      4        6          -0.004734107    0.008456023   -0.001047422
      5        6          -0.003882297   -0.022437949    0.001342598
      6        6          -0.018026299   -0.000072773   -0.001315678
      7        6          -0.007272899    0.013184978    0.000855809
      8        6           0.002568598    0.000508423    0.001156217
      9        6           0.007432279   -0.002465583   -0.000457210
     10        6           0.057511687   -0.032945935    0.014034463
     11        1           0.005217560   -0.002709441   -0.001486539
     12        1           0.001043299   -0.003070181   -0.000400102
     13        1          -0.000187494    0.000963634    0.000338518
     14        1          -0.001653344   -0.000761761   -0.000151202
     15        1           0.009418264    0.010520770    0.000637216
     16        1          -0.018370274   -0.007346221    0.004005641
 -------------------------------------------------------------------
 Cartesian Forces:  Max     0.057511687 RMS     0.013893475

 GradGradGradGradGradGradGradGradGradGradGradGradGradGradGradGradGradGrad
 Berny optimization.
 FormGI is forming the generalized inverse of G from B-inverse, IUseBI=4.
 Internal  Forces:  Max     0.051393558 RMS     0.007966699
 Search for a local minimum.
 Step number   1 out of a maximum of   81
 All quantities printed in internal units (Hartrees-Bohrs-Radians)
 Mixed Optimization -- RFO/linear search
 Second derivative matrix not updated -- first step.
 ITU=  0
     Eigenvalues ---    0.01344   0.01620   0.01907   0.02156   0.02156
     Eigenvalues ---    0.02156   0.02157   0.02157   0.02157   0.02157
     Eigenvalues ---    0.02161   0.02181   0.02214   0.15999   0.16000
     Eigenvalues ---    0.16000   0.16000   0.16000   0.16000   0.22000
     Eigenvalues ---    0.22493   0.24487   0.25000   0.25000   0.25000
     Eigenvalues ---    0.25000   0.35177   0.35187   0.35255   0.35274
     Eigenvalues ---    0.37431   0.42231   0.42410   0.46470   0.46479
     Eigenvalues ---    0.46480   0.46491   0.51181   0.52347   0.52835
     Eigenvalues ---    0.52841   0.89343
 RFO step:  Lambda=-9.15021275D-03 EMin= 1.34397801D-02
 Linear search not attempted -- first point.
 Iteration  1 RMS(Cart)=  0.04520221 RMS(Int)=  0.00154981
 Iteration  2 RMS(Cart)=  0.00175753 RMS(Int)=  0.00018955
 Iteration  3 RMS(Cart)=  0.00000470 RMS(Int)=  0.00018950
 Iteration  4 RMS(Cart)=  0.00000000 RMS(Int)=  0.00018950
 Variable       Old X    -DE/DX   Delta X   Delta X   Delta X     New X
                                 (Linear)    (Quad)   (Total)
    R1        2.57569  -0.00974   0.00000  -0.01828  -0.01828   2.55740
    R2        1.83808  -0.01413   0.00000  -0.02628  -0.02628   1.81180
    R3        2.57103  -0.01398   0.00000  -0.02601  -0.02601   2.54502
    R4        1.85392  -0.01842   0.00000  -0.03536  -0.03536   1.81857
    R5        2.33237  -0.05139   0.00000  -0.05694  -0.05694   2.27543
    R6        2.63597   0.00535   0.00000   0.01207   0.01210   2.64806
    R7        2.63596   0.00265   0.00000   0.00592   0.00594   2.64189
    R8        2.75201   0.01797   0.00000   0.04686   0.04686   2.79887
    R9        2.63610   0.00282   0.00000   0.00640   0.00642   2.64252
   R10        2.63592  -0.00482   0.00000  -0.01061  -0.01063   2.62529
   R11        2.05389  -0.00009   0.00000  -0.00025  -0.00025   2.05364
   R12        2.63593  -0.00433   0.00000  -0.00948  -0.00949   2.62644
   R13        2.05373   0.00214   0.00000   0.00593   0.00593   2.05966
   R14        2.63575  -0.00101   0.00000  -0.00291  -0.00293   2.63282
   R15        2.05262   0.00095   0.00000   0.00262   0.00262   2.05525
   R16        2.05233   0.00166   0.00000   0.00459   0.00459   2.05692
    A1        1.90362   0.00018   0.00000   0.00106   0.00106   1.90469
    A2        1.95217  -0.01523   0.00000  -0.09004  -0.09004   1.86213
    A3        2.09433  -0.00345   0.00000  -0.01160  -0.01159   2.08274
    A4        2.10979  -0.00065   0.00000  -0.00335  -0.00338   2.10641
    A5        2.07907   0.00410   0.00000   0.01496   0.01493   2.09400
    A6        2.10988  -0.00798   0.00000  -0.03172  -0.03181   2.07807
    A7        2.07902   0.01069   0.00000   0.04029   0.04018   2.11920
    A8        2.09429  -0.00271   0.00000  -0.00860  -0.00865   2.08563
    A9        2.09442   0.00450   0.00000   0.01899   0.01897   2.11338
   A10        2.12489  -0.00834   0.00000  -0.04548  -0.04547   2.07941
   A11        2.06380   0.00384   0.00000   0.02651   0.02652   2.09032
   A12        2.09457   0.00183   0.00000   0.00776   0.00775   2.10233
   A13        2.10837  -0.00344   0.00000  -0.01883  -0.01883   2.08954
   A14        2.08024   0.00161   0.00000   0.01107   0.01107   2.09131
   A15        2.09457  -0.00217   0.00000  -0.01247  -0.01253   2.08203
   A16        2.09477   0.00073   0.00000   0.00416   0.00417   2.09894
   A17        2.09385   0.00144   0.00000   0.00833   0.00834   2.10219
   A18        2.09419   0.00200   0.00000   0.00592   0.00587   2.10006
   A19        2.09465  -0.00178   0.00000  -0.00756  -0.00754   2.08711
   A20        2.09434  -0.00022   0.00000   0.00164   0.00167   2.09600
   A21        2.13364  -0.00156   0.00000  -0.00601  -0.00660   2.12703
   A22        1.96179  -0.00196   0.00000  -0.00756  -0.00816   1.95363
   A23        2.18776   0.00353   0.00000   0.01363   0.01302   2.20078
    D1       -3.14142   0.00071   0.00000   0.02297   0.02304  -3.11838
    D2       -0.00114  -0.00004   0.00000  -0.00130  -0.00137  -0.00252
    D3       -0.00092   0.00005   0.00000   0.00747   0.00718   0.00625
    D4       -3.14142  -0.00151   0.00000  -0.05392  -0.05362   3.08814
    D5        3.14028  -0.00077   0.00000  -0.02500  -0.02449   3.11579
    D6        0.00002  -0.00002   0.00000  -0.00056  -0.00059  -0.00057
    D7       -0.00037  -0.00105   0.00000  -0.03500  -0.03449  -0.03485
    D8       -3.14063  -0.00030   0.00000  -0.01056  -0.01058   3.13197
    D9       -0.00008   0.00051   0.00000   0.01633   0.01648   0.01639
   D10        3.12780   0.00058   0.00000   0.01740   0.01738  -3.13801
   D11        3.14058   0.00078   0.00000   0.02614   0.02639  -3.11621
   D12       -0.01472   0.00085   0.00000   0.02720   0.02729   0.01257
   D13        2.61594   0.00209   0.00000   0.08775   0.08795   2.70389
   D14       -0.52452   0.00048   0.00000   0.02411   0.02407  -0.50045
   D15       -0.52472   0.00182   0.00000   0.07786   0.07791  -0.44681
   D16        2.61801   0.00021   0.00000   0.01422   0.01402   2.63203
   D17       -3.14014   0.00038   0.00000   0.01196   0.01250  -3.12764
   D18        0.00111   0.00043   0.00000   0.01357   0.01395   0.01506
   D19        0.00015  -0.00037   0.00000  -0.01210  -0.01204  -0.01189
   D20        3.14140  -0.00032   0.00000  -0.01049  -0.01059   3.13081
   D21       -0.00001  -0.00060   0.00000  -0.01944  -0.01952  -0.01953
   D22        3.13853  -0.00028   0.00000  -0.00871  -0.00882   3.12971
   D23       -3.12837  -0.00058   0.00000  -0.01991  -0.01986   3.13495
   D24        0.01017  -0.00025   0.00000  -0.00918  -0.00916   0.00101
   D25       -0.00025   0.00028   0.00000   0.00899   0.00905   0.00880
   D26       -3.14082   0.00014   0.00000   0.00456   0.00451  -3.13631
   D27       -3.14150   0.00023   0.00000   0.00741   0.00761  -3.13389
   D28        0.00111   0.00010   0.00000   0.00298   0.00306   0.00417
   D29        0.00018   0.00021   0.00000   0.00678   0.00666   0.00684
   D30        3.14075   0.00034   0.00000   0.01121   0.01122  -3.13121
   D31       -3.13837  -0.00011   0.00000  -0.00394  -0.00405   3.14076
   D32        0.00221   0.00002   0.00000   0.00049   0.00051   0.00271
         Item               Value     Threshold  Converged?
 Maximum Force            0.051394     0.000450     NO 
 RMS     Force            0.007967     0.000300     NO 
 Maximum Displacement     0.216462     0.001800     NO 
 RMS     Displacement     0.045021     0.001200     NO 
 Predicted change in Energy=-4.795496D-03
 GradGradGradGradGradGradGradGradGradGradGradGradGradGradGradGradGradGrad

                          Input orientation:                          
 ---------------------------------------------------------------------
 Center     Atomic      Atomic             Coordinates (Angstroms)
 Number     Number       Type             X           Y           Z
 ---------------------------------------------------------------------
      1          8           0        0.278960   -2.157255   -0.202908
      2          8           0        2.239377    1.406741   -0.434162
      3          8           0        2.476472   -0.640391    0.419730
      4          6           0        0.273146    0.207846    0.006593
      5          6           0       -0.421724   -1.005840   -0.081428
      6          6           0       -0.445621    1.403241    0.100891
      7          6           0       -1.820050   -1.000863   -0.072775
      8          6           0       -1.834599    1.404871    0.128100
      9          6           0       -2.519588    0.195132    0.036440
     10          6           0        1.754031    0.232359    0.011984
     11          1           0        0.096381    2.342947    0.165607
     12          1           0       -2.364275   -1.941925   -0.151232
     13          1           0       -2.380013    2.341988    0.212857
     14          1           0       -3.607934    0.182078    0.046702
     15          1           0       -0.333277   -2.891845   -0.271946
     16          1           0        3.197114    1.358617   -0.353353
 ---------------------------------------------------------------------
                    Distance matrix (angstroms):
                    1          2          3          4          5
     1  O    0.000000
     2  O    4.074161   0.000000
     3  O    2.741827   2.230717   0.000000
     4  C    2.374369   2.344713   2.396838   0.000000
     5  C    1.353319   3.609215   2.963823   1.401294   0.000000
     6  C    3.646155   2.737793   3.580044   1.398030   2.416088
     7  C    2.400005   4.733509   4.339654   2.418418   1.398362
     8  C    4.155170   4.112593   4.780531   2.426978   2.802079
     9  C    3.663725   4.933276   5.079923   2.792922   2.420178
    10  C    2.816429   1.346766   1.204106   1.481098   2.505149
    11  H    4.518956   2.414258   3.824882   2.148299   3.397622
    12  H    2.652495   5.699757   5.045078   3.406231   2.157459
    13  H    5.242727   4.757319   5.702879   3.411211   3.889660
    14  H    4.543427   5.993503   6.151065   3.881373   3.402867
    15  H    0.958761   5.012256   3.666354   3.170712   1.897665
    16  H    4.571610   0.962344   2.261198   3.162819   4.331349
                    6          7          8          9         10
     6  C    0.000000
     7  C    2.774694   0.000000
     8  C    1.389245   2.414149   0.000000
     9  C    2.401045   1.389850   1.393226   0.000000
    10  C    2.493459   3.781809   3.777106   4.273851   0.000000
    11  H    1.086739   3.861424   2.147109   3.387194   2.688119
    12  H    3.864574   1.089924   3.399944   2.150896   4.659892
    13  H    2.153057   3.401440   1.087589   2.158610   4.645557
    14  H    3.390339   2.147126   2.155589   1.088473   5.362313
    15  H    4.312701   2.413706   4.569001   3.795324   3.768040
    16  H    3.671219   5.551378   5.054906   5.846906   1.866659
                   11         12         13         14         15
    11  H    0.000000
    12  H    4.951297   0.000000
    13  H    2.476844   4.299386   0.000000
    14  H    4.290156   2.469262   2.490102   0.000000
    15  H    5.270589   2.245411   5.640672   4.502657   0.000000
    16  H    3.294355   6.470199   5.691393   6.917584   5.526004
                   16
    16  H    0.000000
 Stoichiometry    C7H6O3
 Framework group  C1[X(C7H6O3)]
 Deg. of freedom    42
 Full point group                 C1      NOp   1
 Largest Abelian subgroup         C1      NOp   1
 Largest concise Abelian subgroup C1      NOp   1
                         Standard orientation:                         
 ---------------------------------------------------------------------
 Center     Atomic      Atomic             Coordinates (Angstroms)
 Number     Number       Type             X           Y           Z
 ---------------------------------------------------------------------
      1          8           0       -0.102212    2.151880   -0.165020
      2          8           0       -2.255102   -1.298697   -0.404527
      3          8           0       -2.372305    0.750782    0.468396
      4          6           0       -0.222454   -0.211799    0.025212
      5          6           0        0.536239    0.963234   -0.060271
      6          6           0        0.431395   -1.445102    0.102234
      7          6           0        1.932257    0.882539   -0.066384
      8          6           0        1.818448   -1.522110    0.114801
      9          6           0        2.567024   -0.350452    0.025751
     10          6           0       -1.702362   -0.156206    0.045997
     11          1           0       -0.160050   -2.354635    0.165028
     12          1           0        2.525857    1.793425   -0.142929
     13          1           0        2.313107   -2.488062    0.186204
     14          1           0        3.654527   -0.396387    0.024658
     15          1           0        0.548204    2.852843   -0.234539
     16          1           0       -3.207961   -1.199532   -0.313249
 ---------------------------------------------------------------------
 Rotational constants (GHZ):           2.3210760           1.2057207           0.8118948
 Standard basis: 6-311++G(d,p) (5D, 7F)
 There are   272 symmetry adapted cartesian basis functions of A   symmetry.
 There are   262 symmetry adapted basis functions of A   symmetry.
   262 basis functions,   414 primitive gaussians,   272 cartesian basis functions
    36 alpha electrons       36 beta electrons
       nuclear repulsion energy       501.4385004815 Hartrees.
 NAtoms=   16 NActive=   16 NUniq=   16 SFac= 1.00D+00 NAtFMM=   60 NAOKFM=F Big=F
 Integral buffers will be    131072 words long.
 Raffenetti 2 integral format.
 Two-electron integral symmetry is turned on.
 R6APFD:  NTU= -4 IXU= 1 FactS= 1.050
 Nuclear repulsion after empirical dispersion term =      501.4287095566 Hartrees.
 One-electron integrals computed using PRISM.
 NBasis=   262 RedAO= T EigKep=  3.65D-06  NBF=   262
 NBsUse=   261 1.00D-06 EigRej=  8.60D-07 NBFU=   261
 Initial guess from the checkpoint file:  "SAAC0157.chk"
 B after Tr=     0.000000    0.000000   -0.000000
         Rot=    0.999994   -0.000161   -0.000117   -0.003423 Ang=  -0.39 deg.
 ExpMin= 3.60D-02 ExpMax= 8.59D+03 ExpMxC= 1.30D+03 IAcc=3 IRadAn=         5 AccDes= 0.00D+00
 Harris functional with IExCor= 1009 and IRadAn=       5 diagonalized for initial guess.
 HarFok:  IExCor= 1009 AccDes= 0.00D+00 IRadAn=         5 IDoV= 1 UseB2=F ITyADJ=14
 ICtDFT=  3500011 ScaDFX=  1.000000  1.000000  1.000000  1.000000
 FoFCou: FMM=F IPFlag=           0 FMFlag=      100000 FMFlg1=           0
         NFxFlg=           0 DoJE=T BraDBF=F KetDBF=T FulRan=T
         wScrn=  0.000000 ICntrl=       500 IOpCl=  0 I1Cent=   200000004 NGrid=           0
         NMat0=    1 NMatS0=      1 NMatT0=    0 NMatD0=    1 NMtDS0=    0 NMtDT0=    0
 Petite list used in FoFCou.
 Requested convergence on RMS density matrix=1.00D-08 within  32 cycles.
 Requested convergence on MAX density matrix=1.00D-06.
 Requested convergence on             energy=1.00D-06.
 No special actions if energy rises.
 SCF Done:  E(RM08HX) =  -496.024343876     A.U. after   14 cycles
            NFock= 14  Conv=0.52D-08     -V/T= 2.0039
 QCSCF skips out because SCF is already converged.
 R6APFD:  NTU= -4 IXU= 1 FactS= 1.050
 Calling FoFJK, ICntrl=      2127 FMM=F ISym2X=0 I1Cent= 0 IOpClX= 0 NMat=1 NMatS=1 NMatT=0.
 ***** Axes restored to original set *****
 -------------------------------------------------------------------
 Center     Atomic                   Forces (Hartrees/Bohr)
 Number     Number              X              Y              Z
 -------------------------------------------------------------------
      1        8          -0.002084696    0.003734773    0.000362839
      2        8          -0.000556185    0.003014047   -0.002844247
      3        8          -0.003979664    0.002608837   -0.004816476
      4        6          -0.003175854    0.001613018   -0.002631032
      5        6           0.000763107   -0.004821339   -0.000065031
      6        6          -0.002908702   -0.000288055   -0.000071167
      7        6          -0.002223444    0.002152919    0.000665776
      8        6           0.000506257    0.000659088   -0.000006673
      9        6           0.001593241   -0.000761168   -0.000073866
     10        6           0.007139517   -0.005931947    0.010163138
     11        1           0.001785184   -0.000338329   -0.000582895
     12        1           0.000636844   -0.000722615   -0.000097396
     13        1           0.000246575   -0.000181261    0.000071683
     14        1          -0.000126860   -0.000460567    0.000012380
     15        1           0.000627188   -0.001042123   -0.000224361
     16        1           0.001757492    0.000764723    0.000137330
 -------------------------------------------------------------------
 Cartesian Forces:  Max     0.010163138 RMS     0.002689316

 GradGradGradGradGradGradGradGradGradGradGradGradGradGradGradGradGradGrad
 Berny optimization.
 Using GEDIIS/GDIIS optimizer.
 FormGI is forming the generalized inverse of G from B-inverse, IUseBI=4.
 Internal  Forces:  Max     0.005908389 RMS     0.001364048
 Search for a local minimum.
 Step number   2 out of a maximum of   81
 All quantities printed in internal units (Hartrees-Bohrs-Radians)
 Mixed Optimization -- RFO/linear search
 Update second derivatives using D2CorX and points    1    2
 DE= -4.93D-03 DEPred=-4.80D-03 R= 1.03D+00
 TightC=F SS=  1.41D+00  RLast= 2.20D-01 DXNew= 5.0454D-01 6.5870D-01
 Trust test= 1.03D+00 RLast= 2.20D-01 DXMaxT set to 5.05D-01
 ITU=  1  0
 Use linear search instead of GDIIS.
     Eigenvalues ---    0.01315   0.01741   0.01902   0.02149   0.02156
     Eigenvalues ---    0.02156   0.02157   0.02157   0.02157   0.02158
     Eigenvalues ---    0.02179   0.02189   0.02217   0.15275   0.15999
     Eigenvalues ---    0.16000   0.16000   0.16000   0.16919   0.21898
     Eigenvalues ---    0.22496   0.24412   0.24511   0.24985   0.24999
     Eigenvalues ---    0.25244   0.35113   0.35189   0.35258   0.35271
     Eigenvalues ---    0.35899   0.42180   0.42334   0.46320   0.46471
     Eigenvalues ---    0.46481   0.46499   0.51268   0.51897   0.52755
     Eigenvalues ---    0.55952   0.84332
 RFO step:  Lambda=-1.28537111D-03 EMin= 1.31515716D-02
 Quartic linear search produced a step of  0.05982.
 Iteration  1 RMS(Cart)=  0.02333876 RMS(Int)=  0.00167977
 Iteration  2 RMS(Cart)=  0.00193998 RMS(Int)=  0.00084088
 Iteration  3 RMS(Cart)=  0.00000316 RMS(Int)=  0.00084087
 Iteration  4 RMS(Cart)=  0.00000000 RMS(Int)=  0.00084087
 Variable       Old X    -DE/DX   Delta X   Delta X   Delta X     New X
                                 (Linear)    (Quad)   (Total)
    R1        2.55740  -0.00306  -0.00109  -0.00770  -0.00879   2.54861
    R2        1.81180   0.00042  -0.00157  -0.00135  -0.00293   1.80887
    R3        2.54502   0.00462  -0.00156   0.00708   0.00553   2.55055
    R4        1.81857   0.00172  -0.00212   0.00062  -0.00149   1.81708
    R5        2.27543  -0.00591  -0.00341  -0.01178  -0.01519   2.26024
    R6        2.64806   0.00139   0.00072   0.00427   0.00500   2.65306
    R7        2.64189  -0.00070   0.00036  -0.00107  -0.00071   2.64118
    R8        2.79887   0.00438   0.00280   0.01620   0.01900   2.81787
    R9        2.64252   0.00022   0.00038   0.00111   0.00150   2.64402
   R10        2.62529  -0.00085  -0.00064  -0.00288  -0.00352   2.62178
   R11        2.05364   0.00056  -0.00001   0.00167   0.00166   2.05530
   R12        2.62644  -0.00107  -0.00057  -0.00324  -0.00381   2.62263
   R13        2.05966   0.00031   0.00035   0.00142   0.00178   2.06144
   R14        2.63282   0.00064  -0.00018   0.00110   0.00092   2.63374
   R15        2.05525  -0.00027   0.00016  -0.00061  -0.00045   2.05480
   R16        2.05692   0.00013   0.00027   0.00077   0.00105   2.05796
    A1        1.90469   0.00210   0.00006   0.01387   0.01393   1.91862
    A2        1.86213   0.00144  -0.00539   0.00247  -0.00291   1.85922
    A3        2.08274   0.00006  -0.00069  -0.00050  -0.00121   2.08153
    A4        2.10641   0.00024  -0.00020   0.00059   0.00035   2.10676
    A5        2.09400  -0.00030   0.00089  -0.00021   0.00064   2.09464
    A6        2.07807  -0.00099  -0.00190  -0.00686  -0.00877   2.06930
    A7        2.11920   0.00149   0.00240   0.00939   0.01179   2.13098
    A8        2.08563  -0.00050  -0.00052  -0.00244  -0.00296   2.08268
    A9        2.11338   0.00034   0.00113   0.00302   0.00415   2.11754
   A10        2.07941  -0.00196  -0.00272  -0.01604  -0.01876   2.06065
   A11        2.09032   0.00162   0.00159   0.01307   0.01465   2.10497
   A12        2.10233  -0.00013   0.00046   0.00011   0.00057   2.10290
   A13        2.08954  -0.00088  -0.00113  -0.00739  -0.00852   2.08102
   A14        2.09131   0.00100   0.00066   0.00729   0.00795   2.09926
   A15        2.08203  -0.00041  -0.00075  -0.00338  -0.00413   2.07790
   A16        2.09894   0.00008   0.00025   0.00069   0.00094   2.09987
   A17        2.10219   0.00034   0.00050   0.00271   0.00321   2.10540
   A18        2.10006   0.00063   0.00035   0.00319   0.00353   2.10359
   A19        2.08711  -0.00078  -0.00045  -0.00502  -0.00547   2.08164
   A20        2.09600   0.00015   0.00010   0.00183   0.00193   2.09794
   A21        2.12703   0.00147  -0.00039   0.00873   0.00423   2.13127
   A22        1.95363  -0.00133  -0.00049  -0.00328  -0.00785   1.94579
   A23        2.20078   0.00001   0.00078   0.00395   0.00066   2.20144
    D1       -3.11838   0.00005   0.00138   0.00271   0.00408  -3.11429
    D2       -0.00252   0.00015  -0.00008   0.00699   0.00691   0.00439
    D3        0.00625  -0.00160   0.00043  -0.09362  -0.09320  -0.08695
    D4        3.08814   0.00106  -0.00321   0.06774   0.06454  -3.13050
    D5        3.11579  -0.00007  -0.00147  -0.00405  -0.00549   3.11030
    D6       -0.00057  -0.00019  -0.00004  -0.00843  -0.00846  -0.00903
    D7       -0.03485  -0.00035  -0.00206  -0.01873  -0.02078  -0.05563
    D8        3.13197  -0.00047  -0.00063  -0.02311  -0.02374   3.10823
    D9        0.01639   0.00013   0.00099   0.00580   0.00681   0.02320
   D10       -3.13801   0.00024   0.00104   0.01044   0.01144  -3.12656
   D11       -3.11621   0.00041   0.00158   0.02038   0.02198  -3.09423
   D12        0.01257   0.00051   0.00163   0.02502   0.02662   0.03919
   D13        2.70389  -0.00052   0.00526  -0.02247  -0.01701   2.68688
   D14       -0.50045   0.00233   0.00144   0.14731   0.14857  -0.35188
   D15       -0.44681  -0.00080   0.00466  -0.03725  -0.03242  -0.47923
   D16        2.63203   0.00205   0.00084   0.13253   0.13317   2.76520
   D17       -3.12764   0.00003   0.00075   0.00070   0.00147  -3.12616
   D18        0.01506  -0.00002   0.00083  -0.00110  -0.00025   0.01481
   D19       -0.01189   0.00012  -0.00072   0.00494   0.00424  -0.00765
   D20        3.13081   0.00008  -0.00063   0.00314   0.00251   3.13332
   D21       -0.01953   0.00001  -0.00117   0.00051  -0.00066  -0.02019
   D22        3.12971  -0.00005  -0.00053  -0.00227  -0.00280   3.12692
   D23        3.13495  -0.00006  -0.00119  -0.00394  -0.00517   3.12978
   D24        0.00101  -0.00013  -0.00055  -0.00673  -0.00731  -0.00630
   D25        0.00880   0.00003   0.00054   0.00142   0.00196   0.01076
   D26       -3.13631  -0.00001   0.00027  -0.00013   0.00013  -3.13618
   D27       -3.13389   0.00007   0.00046   0.00321   0.00369  -3.13020
   D28        0.00417   0.00004   0.00018   0.00167   0.00186   0.00603
   D29        0.00684  -0.00010   0.00040  -0.00415  -0.00378   0.00306
   D30       -3.13121  -0.00006   0.00067  -0.00259  -0.00191  -3.13313
   D31        3.14076  -0.00003  -0.00024  -0.00137  -0.00164   3.13912
   D32        0.00271   0.00001   0.00003   0.00020   0.00022   0.00294
         Item               Value     Threshold  Converged?
 Maximum Force            0.005908     0.000450     NO 
 RMS     Force            0.001364     0.000300     NO 
 Maximum Displacement     0.124958     0.001800     NO 
 RMS     Displacement     0.022844     0.001200     NO 
 Predicted change in Energy=-7.015978D-04
 GradGradGradGradGradGradGradGradGradGradGradGradGradGradGradGradGradGrad

                          Input orientation:                          
 ---------------------------------------------------------------------
 Center     Atomic      Atomic             Coordinates (Angstroms)
 Number     Number       Type             X           Y           Z
 ---------------------------------------------------------------------
      1          8           0        0.285831   -2.143072   -0.192525
      2          8           0        2.244084    1.409292   -0.411105
      3          8           0        2.471846   -0.672026    0.353605
      4          6           0        0.267439    0.214052    0.017569
      5          6           0       -0.425633   -1.003383   -0.074921
      6          6           0       -0.455648    1.407147    0.101875
      7          6           0       -1.824765   -0.997586   -0.069767
      8          6           0       -1.842862    1.409873    0.123376
      9          6           0       -2.523552    0.196921    0.034796
     10          6           0        1.757818    0.240708    0.057536
     11          1           0        0.100866    2.339889    0.158391
     12          1           0       -2.361739   -1.943778   -0.149554
     13          1           0       -2.388681    2.346926    0.203054
     14          1           0       -3.612390    0.177942    0.041953
     15          1           0       -0.306543   -2.890946   -0.270208
     16          1           0        3.202329    1.345741   -0.362977
 ---------------------------------------------------------------------
                    Distance matrix (angstroms):
                    1          2          3          4          5
     1  O    0.000000
     2  O    4.062243   0.000000
     3  O    2.690891   2.229023   0.000000
     4  C    2.366540   2.349359   2.399472   0.000000
     5  C    1.348667   3.614057   2.947679   1.403941   0.000000
     6  C    3.638753   2.748036   3.599521   1.397655   2.417191
     7  C    2.404543   4.739737   4.329677   2.419300   1.399154
     8  C    4.153859   4.121747   4.796250   2.427870   2.805649
     9  C    3.663315   4.939537   5.080424   2.791096   2.419511
    10  C    2.812771   1.349692   1.196067   1.491153   2.516498
    11  H    4.500477   2.404936   3.838136   2.136998   3.392506
    12  H    2.655409   5.703077   5.023352   3.405398   2.153699
    13  H    5.241143   4.766430   5.723762   3.411528   3.892993
    14  H    4.542930   6.001647   6.151219   3.880073   3.400677
    15  H    0.957213   5.001759   3.610013   3.170691   1.901372
    16  H    4.550476   0.961555   2.262406   3.168457   4.331682
                    6          7          8          9         10
     6  C    0.000000
     7  C    2.772487   0.000000
     8  C    1.387384   2.415262   0.000000
     9  C    2.396952   1.387834   1.393714   0.000000
    10  C    2.502394   3.792688   3.786314   4.281654   0.000000
    11  H    1.087615   3.859902   2.155048   3.390451   2.676232
    12  H    3.863302   1.090865   3.404511   2.154706   4.667506
    13  H    2.151752   3.402674   1.087352   2.160792   4.653040
    14  H    3.388150   2.142416   2.157664   1.089026   5.370597
    15  H    4.316745   2.435157   4.583910   3.813539   3.765137
    16  H    3.687906   5.554172   5.068984   5.853523   1.866693
                   11         12         13         14         15
    11  H    0.000000
    12  H    4.950662   0.000000
    13  H    2.489957   4.305252   0.000000
    14  H    4.298353   2.470322   2.495578   0.000000
    15  H    5.264153   2.266168   5.656375   4.521520   0.000000
    16  H    3.298367   6.467251   5.708078   6.925902   5.501846
                   16
    16  H    0.000000
 Stoichiometry    C7H6O3
 Framework group  C1[X(C7H6O3)]
 Deg. of freedom    42
 Full point group                 C1      NOp   1
 Largest Abelian subgroup         C1      NOp   1
 Largest concise Abelian subgroup C1      NOp   1
                         Standard orientation:                         
 ---------------------------------------------------------------------
 Center     Atomic      Atomic             Coordinates (Angstroms)
 Number     Number       Type             X           Y           Z
 ---------------------------------------------------------------------
      1          8           0       -0.129537    2.138111   -0.150953
      2          8           0       -2.250933   -1.318536   -0.381363
      3          8           0       -2.374011    0.762713    0.407177
      4          6           0       -0.216657   -0.219504    0.034974
      5          6           0        0.530314    0.965915   -0.053712
      6          6           0        0.451961   -1.445223    0.098237
      7          6           0        1.927674    0.896148   -0.065894
      8          6           0        1.837752   -1.511552    0.102577
      9          6           0        2.572196   -0.330086    0.017908
     10          6           0       -1.706113   -0.178469    0.093070
     11          1           0       -0.145989   -2.352117    0.152154
     12          1           0        2.506447    1.817619   -0.142702
     13          1           0        2.340976   -2.473362    0.165999
     14          1           0        3.660768   -0.360949    0.011812
     15          1           0        0.495513    2.858929   -0.228353
     16          1           0       -3.204622   -1.211792   -0.320763
 ---------------------------------------------------------------------
 Rotational constants (GHZ):           2.3322834           1.2058683           0.8102054
 Standard basis: 6-311++G(d,p) (5D, 7F)
 There are   272 symmetry adapted cartesian basis functions of A   symmetry.
 There are   262 symmetry adapted basis functions of A   symmetry.
   262 basis functions,   414 primitive gaussians,   272 cartesian basis functions
    36 alpha electrons       36 beta electrons
       nuclear repulsion energy       501.6453196566 Hartrees.
 NAtoms=   16 NActive=   16 NUniq=   16 SFac= 1.00D+00 NAtFMM=   60 NAOKFM=F Big=F
 Integral buffers will be    131072 words long.
 Raffenetti 2 integral format.
 Two-electron integral symmetry is turned on.
 R6APFD:  NTU= -4 IXU= 1 FactS= 1.050
 Nuclear repulsion after empirical dispersion term =      501.6354732460 Hartrees.
 One-electron integrals computed using PRISM.
 NBasis=   262 RedAO= T EigKep=  3.55D-06  NBF=   262
 NBsUse=   261 1.00D-06 EigRej=  8.56D-07 NBFU=   261
 Initial guess from the checkpoint file:  "SAAC0157.chk"
 B after Tr=     0.000000   -0.000000   -0.000000
         Rot=    0.999993    0.000964   -0.000288   -0.003641 Ang=   0.43 deg.
 ExpMin= 3.60D-02 ExpMax= 8.59D+03 ExpMxC= 1.30D+03 IAcc=3 IRadAn=         5 AccDes= 0.00D+00
 Harris functional with IExCor= 1009 and IRadAn=       5 diagonalized for initial guess.
 HarFok:  IExCor= 1009 AccDes= 0.00D+00 IRadAn=         5 IDoV= 1 UseB2=F ITyADJ=14
 ICtDFT=  3500011 ScaDFX=  1.000000  1.000000  1.000000  1.000000
 FoFCou: FMM=F IPFlag=           0 FMFlag=      100000 FMFlg1=           0
         NFxFlg=           0 DoJE=T BraDBF=F KetDBF=T FulRan=T
         wScrn=  0.000000 ICntrl=       500 IOpCl=  0 I1Cent=   200000004 NGrid=           0
         NMat0=    1 NMatS0=      1 NMatT0=    0 NMatD0=    1 NMtDS0=    0 NMtDT0=    0
 Petite list used in FoFCou.
 Requested convergence on RMS density matrix=1.00D-08 within  32 cycles.
 Requested convergence on MAX density matrix=1.00D-06.
 Requested convergence on             energy=1.00D-06.
 No special actions if energy rises.
 SCF Done:  E(RM08HX) =  -496.023911074     A.U. after   14 cycles
            NFock= 14  Conv=0.32D-08     -V/T= 2.0038
 QCSCF skips out because SCF is already converged.
 R6APFD:  NTU= -4 IXU= 1 FactS= 1.050
 Calling FoFJK, ICntrl=      2127 FMM=F ISym2X=0 I1Cent= 0 IOpClX= 0 NMat=1 NMatS=1 NMatT=0.
 ***** Axes restored to original set *****
 -------------------------------------------------------------------
 Center     Atomic                   Forces (Hartrees/Bohr)
 Number     Number              X              Y              Z
 -------------------------------------------------------------------
      1        8          -0.000510354    0.000990054    0.000363294
      2        8          -0.001118816    0.004956721    0.004489484
      3        8           0.003964730   -0.002173598    0.007573028
      4        6          -0.000531250    0.002310547    0.004869255
      5        6           0.002216186   -0.000061718    0.000456385
      6        6           0.001075385   -0.000044311    0.000072941
      7        6          -0.000070711   -0.000895356   -0.000302464
      8        6          -0.000338989    0.000460198   -0.000526869
      9        6          -0.000398543    0.000226956    0.000053648
     10        6          -0.005902928   -0.005373373   -0.016686523
     11        1          -0.000052957    0.000287266    0.000122451
     12        1           0.000174732    0.000256292    0.000018638
     13        1          -0.000024590   -0.000226387   -0.000106799
     14        1           0.000158548   -0.000009647    0.000126587
     15        1          -0.001290683   -0.001640855   -0.000206964
     16        1           0.002650239    0.000937211   -0.000316092
 -------------------------------------------------------------------
 Cartesian Forces:  Max     0.016686523 RMS     0.003282971

 GradGradGradGradGradGradGradGradGradGradGradGradGradGradGradGradGradGrad
 Berny optimization.
 Using GEDIIS/GDIIS optimizer.
 FormGI is forming the generalized inverse of G from B-inverse, IUseBI=4.
 Internal  Forces:  Max     0.005901069 RMS     0.001730595
 Search for a local minimum.
 Step number   3 out of a maximum of   81
 All quantities printed in internal units (Hartrees-Bohrs-Radians)
 Mixed Optimization -- RFO/linear search
 Update second derivatives using D2CorX and points    1    3    2
 DE=  4.33D-04 DEPred=-7.02D-04 R=-6.17D-01
 Trust test=-6.17D-01 RLast= 2.42D-01 DXMaxT set to 2.52D-01
 ITU= -1  1  0
 Use linear search instead of GDIIS.
     Eigenvalues ---    0.01098   0.01895   0.02121   0.02156   0.02156
     Eigenvalues ---    0.02157   0.02157   0.02157   0.02158   0.02177
     Eigenvalues ---    0.02182   0.02210   0.06826   0.14444   0.16000
     Eigenvalues ---    0.16000   0.16000   0.16015   0.16654   0.21803
     Eigenvalues ---    0.22488   0.24148   0.24521   0.24995   0.25059
     Eigenvalues ---    0.25799   0.34606   0.35190   0.35243   0.35273
     Eigenvalues ---    0.35377   0.42162   0.42291   0.46141   0.46471
     Eigenvalues ---    0.46492   0.46508   0.50886   0.51588   0.52731
     Eigenvalues ---    0.54278   0.86018
 RFO step:  Lambda=-5.27494988D-04 EMin= 1.09754845D-02
 Quartic linear search produced a step of -0.62318.
 Iteration  1 RMS(Cart)=  0.03670787 RMS(Int)=  0.00115452
 Iteration  2 RMS(Cart)=  0.00172638 RMS(Int)=  0.00004212
 Iteration  3 RMS(Cart)=  0.00000109 RMS(Int)=  0.00004211
 Iteration  4 RMS(Cart)=  0.00000000 RMS(Int)=  0.00004211
 Variable       Old X    -DE/DX   Delta X   Delta X   Delta X     New X
                                 (Linear)    (Quad)   (Total)
    R1        2.54861  -0.00041   0.00548  -0.00728  -0.00180   2.54681
    R2        1.80887   0.00210   0.00182   0.00140   0.00322   1.81209
    R3        2.55055   0.00420  -0.00345   0.01152   0.00807   2.55862
    R4        1.81708   0.00256   0.00093   0.00426   0.00519   1.82226
    R5        2.26024   0.00590   0.00947  -0.00677   0.00270   2.26294
    R6        2.65306   0.00083  -0.00312   0.00446   0.00135   2.65441
    R7        2.64118   0.00002   0.00044  -0.00136  -0.00092   2.64027
    R8        2.81787  -0.00057  -0.01184   0.01374   0.00190   2.81977
    R9        2.64402   0.00017  -0.00093   0.00096   0.00003   2.64405
   R10        2.62178   0.00032   0.00219  -0.00217   0.00002   2.62179
   R11        2.05530   0.00023  -0.00103   0.00196   0.00093   2.05623
   R12        2.62263   0.00034   0.00237  -0.00259  -0.00021   2.62241
   R13        2.06144  -0.00031  -0.00111   0.00084  -0.00027   2.06117
   R14        2.63374  -0.00001  -0.00057   0.00125   0.00067   2.63441
   R15        2.05480  -0.00019   0.00028  -0.00095  -0.00067   2.05413
   R16        2.05796  -0.00016  -0.00065   0.00040  -0.00025   2.05771
    A1        1.91862   0.00002  -0.00868   0.01421   0.00553   1.92415
    A2        1.85922   0.00217   0.00182   0.01187   0.01368   1.87290
    A3        2.08153   0.00026   0.00076   0.00045   0.00122   2.08274
    A4        2.10676   0.00142  -0.00022   0.00283   0.00264   2.10940
    A5        2.09464  -0.00167  -0.00040  -0.00351  -0.00389   2.09075
    A6        2.06930   0.00264   0.00547  -0.00156   0.00391   2.07321
    A7        2.13098  -0.00211  -0.00735   0.00451  -0.00283   2.12815
    A8        2.08268  -0.00054   0.00184  -0.00285  -0.00101   2.08167
    A9        2.11754   0.00002  -0.00259   0.00223  -0.00036   2.11718
   A10        2.06065   0.00019   0.01169  -0.01384  -0.00215   2.05850
   A11        2.10497  -0.00021  -0.00913   0.01167   0.00254   2.10751
   A12        2.10290   0.00029  -0.00035   0.00020  -0.00015   2.10275
   A13        2.08102  -0.00017   0.00531  -0.00698  -0.00167   2.07935
   A14        2.09926  -0.00012  -0.00496   0.00678   0.00182   2.10109
   A15        2.07790  -0.00008   0.00258  -0.00304  -0.00046   2.07743
   A16        2.09987   0.00018  -0.00058   0.00092   0.00033   2.10021
   A17        2.10540  -0.00010  -0.00200   0.00214   0.00014   2.10554
   A18        2.10359   0.00006  -0.00220   0.00303   0.00083   2.10442
   A19        2.08164  -0.00003   0.00341  -0.00482  -0.00141   2.08023
   A20        2.09794  -0.00003  -0.00121   0.00178   0.00058   2.09851
   A21        2.13127   0.00049  -0.00264   0.00704   0.00457   2.13584
   A22        1.94579  -0.00138   0.00489  -0.00798  -0.00292   1.94287
   A23        2.20144   0.00172  -0.00041   0.00304   0.00280   2.20424
    D1       -3.11429   0.00004  -0.00255   0.00269   0.00015  -3.11415
    D2        0.00439   0.00003  -0.00430   0.00782   0.00352   0.00791
    D3       -0.08695   0.00433   0.05808  -0.00188   0.05632  -0.03063
    D4       -3.13050  -0.00434  -0.04022  -0.02380  -0.06413   3.08855
    D5        3.11030   0.00009   0.00342  -0.00188   0.00156   3.11185
    D6       -0.00903   0.00012   0.00527  -0.00697  -0.00170  -0.01073
    D7       -0.05563   0.00026   0.01295  -0.01312  -0.00016  -0.05579
    D8        3.10823   0.00030   0.01480  -0.01821  -0.00342   3.10481
    D9        0.02320  -0.00024  -0.00424   0.00177  -0.00247   0.02073
   D10       -3.12656  -0.00002  -0.00713   0.01001   0.00289  -3.12367
   D11       -3.09423  -0.00046  -0.01370   0.01284  -0.00087  -3.09510
   D12        0.03919  -0.00024  -0.01659   0.02107   0.00450   0.04369
   D13        2.68688   0.00503   0.01060   0.09094   0.10149   2.78837
   D14       -0.35188  -0.00397  -0.09259   0.06771  -0.02483  -0.37671
   D15       -0.47923   0.00524   0.02020   0.07968   0.09983  -0.37940
   D16        2.76520  -0.00376  -0.08299   0.05645  -0.02648   2.73871
   D17       -3.12616  -0.00003  -0.00092   0.00044  -0.00047  -3.12663
   D18        0.01481  -0.00002   0.00015  -0.00150  -0.00134   0.01347
   D19       -0.00765   0.00000  -0.00264   0.00563   0.00298  -0.00467
   D20        3.13332   0.00001  -0.00157   0.00369   0.00211   3.13543
   D21       -0.02019   0.00023   0.00041   0.00491   0.00532  -0.01487
   D22        3.12692   0.00015   0.00174   0.00037   0.00211   3.12903
   D23        3.12978   0.00000   0.00322  -0.00341  -0.00017   3.12961
   D24       -0.00630  -0.00007   0.00455  -0.00795  -0.00338  -0.00968
   D25        0.01076  -0.00001  -0.00122   0.00110  -0.00012   0.01064
   D26       -3.13618   0.00002  -0.00008   0.00005  -0.00003  -3.13621
   D27       -3.13020  -0.00002  -0.00230   0.00306   0.00076  -3.12945
   D28        0.00603   0.00002  -0.00116   0.00201   0.00085   0.00689
   D29        0.00306  -0.00010   0.00235  -0.00635  -0.00399  -0.00093
   D30       -3.13313  -0.00013   0.00119  -0.00527  -0.00408  -3.13721
   D31        3.13912  -0.00002   0.00102  -0.00180  -0.00077   3.13835
   D32        0.00294  -0.00006  -0.00014  -0.00073  -0.00086   0.00207
         Item               Value     Threshold  Converged?
 Maximum Force            0.005901     0.000450     NO 
 RMS     Force            0.001731     0.000300     NO 
 Maximum Displacement     0.156973     0.001800     NO 
 RMS     Displacement     0.036697     0.001200     NO 
 Predicted change in Energy=-5.195589D-04
 GradGradGradGradGradGradGradGradGradGradGradGradGradGradGradGradGradGrad

                          Input orientation:                          
 ---------------------------------------------------------------------
 Center     Atomic      Atomic             Coordinates (Angstroms)
 Number     Number       Type             X           Y           Z
 ---------------------------------------------------------------------
      1          8           0        0.268875   -2.159321   -0.203693
      2          8           0        2.237680    1.439375   -0.359058
      3          8           0        2.480029   -0.676801    0.324018
      4          6           0        0.268582    0.202013   -0.012224
      5          6           0       -0.431140   -1.013746   -0.085504
      6          6           0       -0.446551    1.399166    0.074332
      7          6           0       -1.829963   -1.000765   -0.057174
      8          6           0       -1.833344    1.409221    0.113839
      9          6           0       -2.520758    0.198219    0.047747
     10          6           0        1.760407    0.226515    0.007544
     11          1           0        0.117887    2.328634    0.112791
     12          1           0       -2.371225   -1.945623   -0.120061
     13          1           0       -2.373473    2.349197    0.193012
     14          1           0       -3.609258    0.183500    0.073028
     15          1           0       -0.327480   -2.907518   -0.267585
     16          1           0        3.198133    1.405635   -0.279910
 ---------------------------------------------------------------------
                    Distance matrix (angstroms):
                    1          2          3          4          5
     1  O    0.000000
     2  O    4.104990   0.000000
     3  O    2.713953   2.236857   0.000000
     4  C    2.369084   2.351320   2.403304   0.000000
     5  C    1.347713   3.635276   2.959078   1.404653   0.000000
     6  C    3.640324   2.719290   3.596783   1.397169   2.418249
     7  C    2.401841   4.753013   4.338927   2.419212   1.399170
     8  C    4.153871   4.098510   4.795920   2.427208   2.806544
     9  C    3.661049   4.934440   5.084276   2.789987   2.419323
    10  C    2.821613   1.353963   1.197494   1.492157   2.519877
    11  H    4.501633   2.346688   3.828442   2.135616   3.392972
    12  H    2.650055   5.723402   5.034061   3.404783   2.152561
    13  H    5.240812   4.732366   5.721041   3.410715   3.893535
    14  H    4.539306   5.995883   6.154878   3.878821   3.399848
    15  H    0.958917   5.048158   3.634308   3.176426   1.905327
    16  H    4.614680   0.964299   2.284063   3.178464   4.366099
                    6          7          8          9         10
     6  C    0.000000
     7  C    2.773227   0.000000
     8  C    1.387393   2.416049   0.000000
     9  C    2.396939   1.387721   1.394070   0.000000
    10  C    2.500046   3.794886   3.784857   4.281447   0.000000
    11  H    1.088109   3.861076   2.156995   3.391953   2.669804
    12  H    3.863906   1.090722   3.405731   2.155593   4.669565
    13  H    2.151668   3.402976   1.086997   2.160902   4.650714
    14  H    3.388298   2.141338   2.158224   1.088893   5.370236
    15  H    4.321876   2.436686   4.587739   3.815169   3.775862
    16  H    3.661864   5.578721   5.046862   5.854138   1.881492
                   11         12         13         14         15
    11  H    0.000000
    12  H    4.951684   0.000000
    13  H    2.492736   4.306216   0.000000
    14  H    4.300558   2.470460   2.496359   0.000000
    15  H    5.268807   2.263603   5.659620   4.521115   0.000000
    16  H    3.239453   6.501863   5.670693   6.925226   5.570762
                   16
    16  H    0.000000
 Stoichiometry    C7H6O3
 Framework group  C1[X(C7H6O3)]
 Deg. of freedom    42
 Full point group                 C1      NOp   1
 Largest Abelian subgroup         C1      NOp   1
 Largest concise Abelian subgroup C1      NOp   1
                         Standard orientation:                         
 ---------------------------------------------------------------------
 Center     Atomic      Atomic             Coordinates (Angstroms)
 Number     Number       Type             X           Y           Z
 ---------------------------------------------------------------------
      1          8           0       -0.089835    2.152782   -0.149727
      2          8           0       -2.260186   -1.327066   -0.326288
      3          8           0       -2.374354    0.789754    0.387552
      4          6           0       -0.220309   -0.207253    0.010801
      5          6           0        0.545886    0.968148   -0.055751
      6          6           0        0.427204   -1.443792    0.072275
      7          6           0        1.941996    0.876168   -0.045982
      8          6           0        1.811607   -1.532329    0.093417
      9          6           0        2.565336   -0.361086    0.034150
     10          6           0       -1.710783   -0.148129    0.049852
     11          1           0       -0.188223   -2.340505    0.105981
     12          1           0        2.534849    1.789885   -0.103606
     13          1           0        2.298817   -2.502184    0.153175
     14          1           0        3.653164   -0.407925    0.045313
     15          1           0        0.546920    2.867086   -0.211654
     16          1           0       -3.216154   -1.240487   -0.234088
 ---------------------------------------------------------------------
 Rotational constants (GHZ):           2.3167709           1.2095843           0.8070652
 Standard basis: 6-311++G(d,p) (5D, 7F)
 There are   272 symmetry adapted cartesian basis functions of A   symmetry.
 There are   262 symmetry adapted basis functions of A   symmetry.
   262 basis functions,   414 primitive gaussians,   272 cartesian basis functions
    36 alpha electrons       36 beta electrons
       nuclear repulsion energy       501.2555921634 Hartrees.
 NAtoms=   16 NActive=   16 NUniq=   16 SFac= 1.00D+00 NAtFMM=   60 NAOKFM=F Big=F
 Integral buffers will be    131072 words long.
 Raffenetti 2 integral format.
 Two-electron integral symmetry is turned on.
 R6APFD:  NTU= -4 IXU= 1 FactS= 1.050
 Nuclear repulsion after empirical dispersion term =      501.2457654153 Hartrees.
 One-electron integrals computed using PRISM.
 NBasis=   262 RedAO= T EigKep=  3.33D-06  NBF=   262
 NBsUse=   261 1.00D-06 EigRej=  8.50D-07 NBFU=   261
 Lowest energy guess from the checkpoint file:  "SAAC0157.chk"
 B after Tr=     0.000000   -0.000000    0.000000
         Rot=    0.999997    0.001800    0.000124    0.001734 Ang=   0.29 deg.
 B after Tr=    -0.000000    0.000000    0.000000
[...]
   zz         0.505371D+02      0.748883D+01      0.833245D+01

 ----------------------------------------------------------------------

 Dipole orientation:
     8         -0.72580950         -3.96130474         -0.99636028
     8          0.44936526          3.29674891         -3.85391030
     8         -0.20753587         -0.74783289         -4.85821385
     6         -0.00666455          0.44411680         -0.47148724
     6         -0.39918197         -1.97423298          0.55764120
     6          0.33103029          2.49551025          1.16482729
     6         -0.44310091         -2.27164074          3.18653024
     6          0.28641770          2.19259765          3.76745248
     6         -0.10426414         -0.21194007          4.77120082
     6          0.05214545          0.83717755         -3.25814422
     1          0.63265146          4.35333007          0.34256363
     1         -0.74805596         -4.15005706          3.97738118
     1          0.55285888          3.81095975          5.00434460
     1         -0.14612037         -0.49053811          6.80943979
     1         -0.97478482         -5.46870864         -0.02035244
     1          0.46385430          3.40538502         -5.67099781

 Electric dipole moment (dipole orientation):
 (Debye = 10**-18 statcoulomb cm , SI units = C m)
                  (au)            (Debye)         (10**-30 SI)
   Tot        0.112652D+01      0.286333D+01      0.955105D+01
   x          0.000000D+00      0.000000D+00      0.000000D+00
   y          0.000000D+00      0.000000D+00      0.000000D+00
   z          0.112652D+01      0.286333D+01      0.955105D+01

 Dipole polarizability, Alpha (dipole orientation).
 (esu units = cm**3 , SI units = C**2 m**2 J**-1)
 Alpha(0;0):
               (au)            (10**-24 esu)      (10**-40 SI)
   iso        0.896308D+02      0.132819D+02      0.147781D+02
   aniso      0.601044D+02      0.890655D+01      0.990988D+01
   xx         0.517300D+02      0.766559D+01      0.852912D+01
   yx         0.824226D+01      0.122138D+01      0.135896D+01
   yy         0.100932D+03      0.149566D+02      0.166415D+02
   zx         0.212102D+00      0.314302D-01      0.349709D-01
   zy         0.580325D+00      0.859953D-01      0.956827D-01
   zz         0.116230D+03      0.172235D+02      0.191638D+02

 ----------------------------------------------------------------------
 1\1\GINC-PITOMBA\Freq\RM08HX\6-311++G(d,p)\C7H6O3\VALTER\23-Sep-2025\0
 \\#N Geom=AllCheck Guess=TCheck SCRF=Check GenChk RM08HX/6-311++G(d,p)
  Freq\\SAAC0157\\0,1\O,0.2545041115,-2.1762201153,-0.1378249564\O,2.24
 19380864,1.4935295392,-0.0478796624\O,2.4970972644,-0.7222734546,-0.14
 42060735\C,0.2752944814,0.2000919365,-0.0408871106\C,-0.4273454959,-1.
 0176499336,-0.0700188398\C,-0.4454126539,1.398300481,0.0299297595\C,-1
 .8268440701,-1.0026442295,-0.0278187149\C,-1.8314931832,1.4086664575,0
 .0716711714\C,-2.519895737,0.1965719322,0.0421536243\C,1.7640020246,0.
 2255165183,-0.084302726\H,0.1109895253,2.3317151758,0.05180193\H,-2.36
 81454197,-1.9490706024,-0.0506326302\H,-2.3717202434,2.3503951775,0.12
 66164922\H,-3.6081872402,0.1826869026,0.073932405\H,-0.359133394,-2.91
 35439604,-0.152430803\H,3.2027519438,1.4316281751,-0.0790038656\\Versi
 on=ES64L-G16RevB.01\State=1-A\HF=-496.0251563\RMSD=2.375e-09\RMSF=3.53
 3e-05\ZeroPoint=0.120053\Thermal=0.1284949\Dipole=-1.1171842,0.1399361
 ,0.0370057\DipoleDeriv=-0.3579615,0.5486203,0.0238258,0.4065961,-1.356
 4058,-0.053938,0.0180132,-0.0572883,-0.3379104,-0.8259773,-0.5020343,-
 0.0073458,-0.4893066,-1.1721793,-0.0163335,-0.0065794,-0.0158143,-0.39
 90293,-1.1872347,0.3640543,0.0390512,0.3124674,-0.8887496,-0.0302437,0
 .0372232,-0.0318544,-0.3661469,-0.7044838,-0.1659479,0.0133122,0.21023
 61,-0.2659356,-0.0158375,0.0287351,-0.0050293,-0.0317567,0.4133657,-0.
 6895225,-0.0379256,-0.3337405,1.2166022,0.0559318,-0.0233399,0.066478,
 0.0996854,0.3544803,0.1022457,-0.009552,-0.2595646,0.0151297,0.0127459
 ,-0.0243161,0.0019447,-0.1063181,-0.1792529,0.4919673,0.020224,0.01075
 99,-0.1794127,-0.00039,0.0004911,-0.0144532,-0.1804763,-0.3914467,-0.2
 217698,-0.0024933,-0.1995246,-0.121237,0.0078742,-0.0014196,0.0086132,
 -0.1672517,0.1178352,-0.0297845,-0.008011,0.1931198,0.3313416,0.012505
 8,0.001027,0.0190384,-0.1103243,2.160184,0.1451746,-0.048618,0.0903513
 ,1.7268978,0.0529837,-0.0511852,0.0514413,0.3350096,0.1051834,-0.03064
 52,-0.0003169,-0.0386657,0.0263414,-0.003432,-0.0007578,-0.0036744,0.1
 371634,0.0454694,-0.0340442,0.0018929,-0.0516594,-0.0811295,-0.0082326
 ,0.0011483,-0.0087176,0.1550879,0.0245172,0.0516333,0.0059487,0.060947
 5,-0.0319836,-0.0094364,0.006292,-0.0091742,0.1522218,-0.0713584,-0.00
 10884,0.0061294,-0.0042709,0.0816432,-0.0021298,0.006001,-0.0022551,0.
 1360216,0.1783589,-0.1048624,-0.0001436,-0.0370577,0.399035,0.0038397,
 0.0026159,0.0051131,0.3330888,0.3183213,0.0760037,0.0040221,0.1293118,
 0.3000422,-0.0059077,0.0060512,-0.0043678,0.3509352\Polar=115.8018502,
 -2.2418829,102.5535082,-2.0387266,2.2090978,50.5371388\Quadrupole=1.92
 03381,2.956645,-4.8769831,6.9394715,0.0796676,0.1295491\PG=C01 [X(C7H6
 O3)]\NImag=0\\0.43153991,0.13216311,0.63008956,-0.00553742,0.02208834,
 0.02824244,0.00159502,-0.00282623,-0.00014855,0.68351027,-0.00139610,-
 0.00071324,-0.00000395,0.01662751,0.40026762,-0.00008936,0.00003816,0.
 00044736,-0.01867389,0.01407350,0.03685975,-0.00221798,-0.01282597,-0.
 00041557,0.03734820,0.01278664,0.00029466,0.37081766,-0.01054859,0.004
 18986,0.00041314,0.02480446,-0.11746766,-0.00665577,-0.36379469,0.6182
 8462,-0.00032153,0.00048098,0.00175282,0.00078072,-0.00628853,0.029954
 96,-0.02466518,0.03432928,0.03512925,0.02585818,0.00925492,-0.00018951
 ,-0.02894365,-0.01708949,0.00057246,-0.02361708,0.02331114,0.00231162,
 0.63795923,-0.01503701,-0.03756928,-0.00132861,-0.04475969,-0.00688239
 ,0.00053735,0.03823145,0.00320869,-0.00190475,0.00261670,0.69279468,-0
 .00120735,-0.00206546,0.00558919,-0.00053441,-0.00029047,0.01315612,0.
 00291462,-0.00145590,0.02215453,-0.01501942,0.02294836,0.13345821,-0.1
 7158122,0.12278927,0.00870734,-0.00693609,0.00183502,0.00032228,-0.000
 69869,0.00608280,0.00022593,-0.19134058,-0.04608707,0.00190328,0.68267
 693,0.07232282,-0.26957997,-0.01146481,0.00876275,0.00159036,-0.000256
 61,0.01048264,-0.01512352,-0.00086328,-0.10729651,-0.24493459,-0.00427
 847,0.00065454,0.72197179,0.00655133,-0.01281065,-0.04743706,0.0006088
 2,-0.00004496,0.00133363,0.00039842,-0.00073418,-0.00168331,-0.0006182
 4,-0.00611947,-0.06337578,-0.01534877,0.02310806,0.16382654,-0.0116082
 6,-0.00390485,0.00034086,-0.00745646,0.00260474,0.00032611,-0.00425362
 ,-0.00287673,0.00007836,-0.17244676,0.05221658,0.00557383,0.08520501,0
 .02846482,-0.00142374,0.72180117,-0.00069336,0.00064375,-0.00018557,-0
 .00151665,-0.00587632,-0.00018719,-0.00844273,0.00285869,0.00026613,0.
 11483446,-0.27717683,-0.01243232,-0.02793685,-0.05795272,-0.00147722,0
 .04211804,0.71254426,0.00047624,-0.00007344,0.00517393,0.00016371,-0.0
 0031151,-0.00015539,-0.00014941,0.00010035,0.00246976,0.00815351,-0.01
 057938,-0.05868953,-0.00374103,-0.00315897,-0.00181524,-0.01551691,0.0
 2219662,0.14456035,-0.00978187,0.00781639,0.00096407,-0.00100387,-0.00
 021655,0.00000208,0.00195863,-0.00201539,-0.00016607,-0.01672515,-0.06
 974647,-0.00222889,-0.30396624,0.02407895,0.00807529,-0.06216595,0.027
 75161,0.00296352,0.64881531,0.04120345,-0.00658109,-0.00199358,-0.0019
 7919,0.00059496,0.00011093,-0.00039326,0.00177256,0.00011803,-0.023898
 27,0.03616786,0.00200816,-0.06056789,-0.13217075,-0.00096648,0.0307352
 6,-0.02385048,-0.00185462,0.02312044,0.74558299,0.00232798,-0.00097649
 ,0.01175144,-0.00007360,0.00005866,-0.00067227,-0.00009570,0.00016105,
 -0.00079458,-0.00033599,0.00338475,0.00485875,0.00459359,-0.00350732,-
 0.06533915,0.00308230,-0.00176776,-0.00123572,-0.01484429,0.02516325,0
 .11878554,0.00612209,0.00169683,-0.00016657,-0.00053836,-0.00231048,-0
 .00008032,-0.00444595,0.00301967,0.00020597,-0.03105095,0.07819265,0.0
 0432858,-0.06810459,-0.03732793,0.00039165,-0.35448898,-0.03498324,0.0
 0725705,0.07268669,-0.02664982,-0.00305922,0.69473751,0.00736238,-0.00
 601386,-0.00040668,-0.00167014,0.00057354,0.00007722,0.00046305,0.0024
 8449,0.00015899,0.02359436,0.03443576,0.00046143,-0.04238027,-0.014675
 63,0.00079951,0.04093020,-0.13036270,-0.00400057,0.02909514,-0.0588013
 3,-0.00356254,-0.03876246,0.72962491,0.00007691,-0.00024123,-0.0014261
 5,-0.00005610,0.00009364,-0.00006470,0.00010447,0.00007907,-0.00169058
 ,0.00207221,-0.00114992,0.00585090,0.00017971,0.00064985,-0.00343785,0
 .01037995,-0.00174300,-0.06319383,-0.00076768,-0.00190563,0.00668926,-
 0.01850255,0.02600968,0.12885576,-0.00370452,-0.00305861,0.00023278,-0
 .00077639,-0.00023561,0.00000958,-0.00057457,0.00024966,0.00003262,-0.
 00225008,-0.00350374,-0.00013647,-0.02298464,0.03349663,0.00204120,-0.
 02764393,-0.03035058,-0.00028529,-0.18769638,0.13738203,0.00956243,-0.
 17988607,-0.12702817,-0.00172452,0.74304038,-0.01381909,0.00510360,0.0
 0029116,-0.00014253,0.00078960,0.00004398,0.00297468,-0.00258502,-0.00
 020187,0.00607715,-0.07160310,-0.00304982,0.09750693,0.04016079,-0.001
 23271,-0.08922894,0.03883766,0.00405698,0.06227037,-0.30250907,-0.0119
 7488,-0.05077596,-0.29002014,-0.00791293,-0.00359669,0.68070467,-0.000
 21948,-0.00004102,0.00820205,0.00001197,0.00004633,-0.00016388,0.00014
 441,-0.00012067,0.00015103,0.00026412,-0.00277013,-0.00198432,0.004684
 01,0.00068265,-0.00068225,-0.00270742,0.00230621,0.00498308,0.00646845
 ,-0.01422074,-0.05725064,0.00141290,-0.00564330,-0.06205445,-0.0181224
 0,0.02246392,0.13972924,-0.01023018,0.01868119,0.00096278,-0.15371566,
 -0.03374708,0.00126943,-0.37313528,0.31585645,0.02138737,-0.19912319,-
 0.00770596,0.00316251,-0.00532135,-0.03174827,-0.00105971,-0.02637898,
 0.01896449,0.00154635,-0.00325595,-0.00046836,0.00027627,0.01175083,0.
 00589487,0.00014861,0.00248087,-0.00701582,-0.00040593,0.78036015,0.00
 474562,-0.00535325,-0.00021937,-0.06534186,-0.22314561,-0.00430615,0.3
 1238937,-0.50117126,-0.02618344,-0.02142933,-0.10330489,-0.00021500,-0
 .03497097,0.01908070,0.00172400,0.02800299,0.01212137,-0.00032132,-0.0
 0325716,-0.00606606,-0.00043399,0.00454646,-0.00709194,-0.00077772,0.0
 0001153,-0.00294572,-0.00006300,-0.21797665,0.81846431,0.00039497,-0.0
 0063312,-0.00346667,0.00000309,-0.00525398,-0.06658575,0.02125313,-0.0
 2627964,-0.08267188,0.00261822,-0.00063050,-0.08285577,-0.00121032,0.0
 0163266,0.00253724,0.00193186,-0.00005620,-0.00044005,0.00016899,-0.00
 052026,0.00688069,0.00009009,-0.00081919,0.00853727,-0.00011642,0.0001
 4742,-0.00142086,-0.02554931,0.03059950,0.21992420,0.00058024,0.001049
 02,0.00003043,-0.00651353,0.00065610,0.00023883,0.00026116,-0.00104024
 ,-0.00002675,0.01130624,0.01333413,0.00033582,-0.00142944,0.00302796,0
 .00036358,-0.13029104,-0.12631121,-0.00254366,-0.00078127,0.00124266,0
 .00003606,-0.00864483,-0.02649026,-0.00067660,-0.00572450,0.00036317,0
 .00040964,0.00183904,0.00218369,-0.00009614,0.13955095,-0.00100519,-0.
 00132142,-0.00003044,-0.00072641,0.00135751,0.00006003,0.00009175,0.00
 094743,0.00000461,-0.01479125,-0.01817484,-0.00047669,0.00396595,-0.00
 181059,-0.00046462,-0.12289206,-0.27016277,-0.00578373,0.00064643,0.00
 026826,0.00004483,0.00291788,0.00544120,-0.00007881,0.00075168,0.00141
 223,-0.00027290,-0.00193831,-0.00294991,0.00011589,0.13293063,0.283812
 41,-0.00005457,-0.00008870,0.00008847,0.00018269,0.00001843,0.00040370
 ,0.00001573,0.00004275,0.00074194,-0.00082620,-0.00131367,0.00411880,0
 .00040140,-0.00043780,0.00657465,-0.00239583,-0.00568356,-0.04103320,0
 .00001268,0.00002547,-0.00129260,0.00052953,0.00079564,0.00527844,0.00
 042568,-0.00025924,0.00747709,-0.00026159,-0.00001063,-0.00428239,0.00
 212861,0.00660744,0.02739141,0.00226372,-0.00097110,-0.00022253,-0.000
 80324,-0.00015513,0.00001460,-0.00020777,0.00036858,0.00002065,-0.0056
 3002,0.00108915,0.00037590,-0.01005921,-0.02863757,-0.00078385,-0.0012
 8338,0.00136837,0.00005726,-0.12785100,-0.11895176,-0.00202851,-0.0004
 9059,0.00346231,0.00036919,0.01204475,0.01443502,0.00030176,0.00070583
 ,-0.00165038,-0.00008464,0.00000473,-0.00007056,-0.00001839,0.13156925
 ,0.00068087,0.00340817,0.00027852,-0.00019855,-0.00002905,0.00000944,-
 0.00036464,0.00032016,0.00002488,-0.00024131,0.00155235,-0.00015555,0.
 00402899,-0.00093075,-0.00029144,0.00084141,0.00030755,0.00003879,-0.1
 1958131,-0.26113062,-0.00587933,0.00439165,-0.00269631,-0.00053407,-0.
 01626889,-0.01869139,-0.00037742,0.00096038,-0.00022904,-0.00004461,-0
 .00008697,-0.00003474,0.00002268,0.12774140,0.27841643,-0.00014881,0.0
 0033352,-0.00376694,0.00001200,0.00000767,-0.00011112,-0.00000960,0.00
 000355,-0.00002516,0.00031950,-0.00019697,0.00550609,0.00056557,0.0006
 7531,0.00323996,0.00003447,0.00002483,-0.00124938,-0.00205774,-0.00589
 072,-0.03179785,0.00040916,-0.00050662,0.00709232,-0.00096063,-0.00129
 363,0.00220944,0.00002378,0.00003271,0.00015936,-0.00001939,0.00002207
 ,-0.00052113,0.00199488,0.00673687,0.02237198,0.00040390,0.00005122,-0
 .00003434,-0.00020291,-0.00039631,-0.00001141,-0.00107295,0.00016462,0
 .00002794,-0.00525430,-0.00148622,0.00031290,-0.00131625,-0.00108798,-
 0.00002075,-0.01046844,0.02857154,0.00155158,-0.00071003,-0.00320673,0
 .00008896,-0.12754035,0.12178006,0.00779451,0.01162149,-0.01521041,-0.
 00091744,0.00087938,0.00168937,0.00006442,0.00059053,-0.00034103,-0.00
 015930,0.00041011,-0.00081006,-0.00003378,0.13218542,0.00011969,0.0003
 5390,0.00004461,0.00016321,0.00008648,0.00000053,0.00009463,-0.0000201
 6,0.00001069,-0.00060302,0.00186737,-0.00020512,-0.00099290,-0.0002344
 8,0.00004077,-0.00253958,0.00390009,0.00015005,-0.00394601,-0.00277595
 ,-0.00027456,0.12192604,-0.27075222,-0.01337909,0.01595216,-0.01761709
 ,-0.00127983,-0.00041592,0.00011569,-0.00001225,0.00035855,0.00053293,
 0.00018801,0.00076433,-0.00099704,-0.00008000,-0.13035028,0.28492428,-
 0.00003079,0.00004893,-0.00082842,0.00001149,0.00001745,-0.00004958,0.
 00002567,0.00000894,-0.00034962,0.00034939,-0.00017993,0.00727140,-0.0
 0001788,0.00004387,-0.00050404,0.00026869,-0.00077679,0.00204798,0.000
 05729,-0.00029417,0.00669264,0.00779985,-0.01337473,-0.03528685,0.0003
 6844,-0.00035272,0.00187957,-0.00002111,-0.00007532,0.00071352,-0.0001
 3069,0.00020813,-0.00427030,0.00003133,-0.00003329,0.00039187,-0.00856
 330,0.01459877,0.02604296,-0.00102774,0.00040026,0.00003424,-0.0001509
 1,0.00000175,0.00000866,-0.00009527,0.00002976,0.00000971,0.00091988,0
 .00004905,-0.00005615,0.00122222,0.00244449,0.00029845,0.00022868,-0.0
 0345094,0.00006440,-0.01090401,-0.00321226,0.00031854,-0.01019820,0.00
 340790,0.00057935,-0.33733227,-0.00324062,0.00871874,-0.00001942,-0.00
 007854,-0.00003475,-0.00056431,0.00024711,0.00001869,0.00059047,0.0003
 5951,-0.00012648,0.00053945,-0.00035112,-0.00014196,0.35676691,0.00160
 004,-0.00018307,-0.00003758,-0.00005703,0.00019878,0.00000421,-0.00001
 463,0.00011504,-0.00000300,0.00041276,-0.00143771,-0.00002868,0.002368
 66,-0.00443304,-0.00057732,-0.00320922,-0.00469072,-0.00039403,0.02734
 571,0.00473672,-0.00079510,-0.02699868,0.00604055,0.00086330,-0.003782
 33,-0.05908806,-0.00069289,-0.00021060,-0.00028931,0.00003935,-0.00127
 019,0.00015058,0.00005572,-0.00027075,0.00055934,0.00020268,0.00049703
 ,0.00054271,0.00016223,0.00357332,0.05748508,0.00008406,-0.00000100,-0
 .00044501,0.00000636,0.00000279,0.00013256,0.00000747,-0.00000333,0.00
 019442,-0.00004176,-0.00002012,-0.00103071,0.00029631,-0.00057867,0.00
 785040,0.00007511,-0.00038699,0.00716498,0.00157731,0.00011731,0.00421
 452,-0.00067432,-0.00004041,0.00457993,0.00869652,-0.00071069,-0.03984
 083,-0.00003963,0.00003450,-0.00107937,-0.00004412,0.00001043,-0.00027
 716,-0.00015278,0.00018353,-0.00415929,-0.00010700,0.00018760,-0.00373
 722,-0.00968562,0.00119217,0.02633542,-0.25831495,-0.27066059,-0.00456
 771,0.00005444,-0.00045547,-0.00002936,-0.00119059,-0.00176905,-0.0000
 2946,-0.00134104,0.00493293,0.00030733,0.01537591,0.02232050,0.0004862
 2,0.00058730,0.00005651,0.00002078,0.00135900,0.00592051,0.00017211,-0
 .00014807,0.00016456,0.00002592,-0.00071511,-0.00050341,-0.00004048,-0
 .00119056,0.00164911,0.00008967,-0.00007093,0.00021024,0.00000719,-0.0
 0123258,-0.00147525,-0.00000366,-0.00008263,-0.00016174,-0.00000622,0.
 00000248,0.00000772,0.00000323,0.24685530,-0.21794128,-0.31668879,-0.0
 0744712,0.00042956,0.00055320,0.00002348,0.00083846,0.00011108,-0.0000
 2891,0.00629844,-0.00193729,-0.00036400,-0.02471287,-0.04162679,-0.001
 00883,-0.00232412,-0.00048808,-0.00000435,-0.00325244,0.00521136,0.000
 36432,0.00086444,0.00129333,0.00000929,-0.00024982,-0.00178942,0.00000
 061,-0.00129688,-0.00033501,0.00004314,0.00028536,-0.00027272,-0.00001
 599,0.00160698,0.00016807,-0.00007668,0.00009333,0.00009123,0.00000194
 ,-0.00021609,0.00025086,0.00001113,0.23969554,0.35552414,-0.00230815,-
 0.00605692,-0.00385076,0.00000619,0.00004864,-0.00032519,0.00007648,0.
 00005014,0.00019165,0.00035291,-0.00031506,0.00222243,-0.00153756,-0.0
 0225363,-0.00157512,-0.00007146,-0.00006784,0.00137983,-0.00021077,0.0
 0009991,-0.00121190,0.00005738,0.00003056,0.00038563,-0.00003321,-0.00
 000499,-0.00135930,-0.00002871,-0.00004322,-0.00046809,0.00001048,-0.0
 0001253,-0.00008647,0.00013021,0.00002012,0.00069202,0.00000484,0.0000
 1137,-0.00004752,-0.00000593,0.00000635,0.00012279,0.00356136,0.008493
 81,0.00385987,0.00010367,0.00034514,0.00000970,-0.51546685,0.02149044,
 0.01582563,0.00112410,0.00815755,0.00012810,0.00167927,-0.00233647,-0.
 00003206,-0.00074177,0.00004216,0.00004008,0.00066365,0.00002055,-0.00
 001810,0.00002208,-0.00027679,-0.00002093,0.00023981,0.00017647,-0.000
 00339,0.00010098,-0.00009385,-0.00000285,-0.02564553,-0.01051326,0.000
 47713,-0.00011303,0.00000314,-0.00000632,-0.00003106,0.00002279,0.0000
 0074,0.00001759,-0.00001804,-0.00000021,0.00002202,0.00000817,-0.00000
 114,0.00005203,-0.00011859,-0.00000406,0.53797302,0.00024264,0.0002151
 2,0.00000194,0.06843079,-0.05189777,-0.00357310,0.00748326,0.00207499,
 0.00008019,-0.00105075,-0.00700578,-0.00040047,-0.00158334,0.00066919,
 0.00005554,0.00106145,-0.00065275,-0.00006086,-0.00010971,-0.00044937,
 -0.00000488,0.00025297,0.00052034,0.00001760,0.00023075,-0.00015953,-0
 .00001782,-0.05783353,0.00309993,0.00167177,-0.00023241,0.00080445,0.0
 0005346,-0.00012888,0.00000688,0.00000540,0.00004184,-0.00001772,-0.00
 000330,0.00003642,0.00004224,0.00000174,0.00006790,-0.00006520,-0.0000
 0672,-0.01690940,0.05281497,0.00000597,-0.00000189,-0.00002669,0.01769
 951,-0.00217369,-0.01416021,0.00010040,0.00006123,-0.00552521,0.000017
 18,-0.00036194,0.00374968,-0.00002386,0.00000716,0.00048735,0.00002382
 ,-0.00002935,0.00003242,-0.00001427,0.00000313,-0.00027815,0.00000083,
 0.00002101,-0.00011510,0.00000968,-0.00000998,0.00012502,-0.00141112,0
 .00025846,0.00451854,-0.00001609,0.00004629,-0.00031124,-0.00000508,0.
 00000089,-0.00003219,0.00000216,-0.00000155,0.00003361,0.00000010,0.00
 000257,-0.00002543,0.00000308,-0.00000185,0.00007014,-0.01639232,0.002
 17950,0.01145744\\0.00000964,-0.00001209,0.00002222,-0.00000920,-0.000
 10372,-0.00001047,0.00002354,0.00002058,-0.00000814,-0.00011298,0.0000
 0362,-0.00001012,-0.00004322,-0.00000061,-0.00000128,0.00004992,0.0000
 2021,-0.00000499,-0.00000040,-0.00004012,0.00000314,-0.00003408,-0.000
 03869,0.00000055,0.00003086,0.00006472,0.00000240,0.00011432,0.0000772
 1,0.00001942,-0.00000443,-0.00001114,0.00000172,-0.00000263,0.00000973
 ,-0.00000048,-0.00000682,-0.00000027,0.00000245,-0.00000285,0.00000059
 ,-0.00000115,-0.00000873,0.00000417,-0.00001495,-0.00000295,0.00000581
 ,-0.00000033\\\@


 KINETICS       FACT
 ---------  =  -------
 MECHANISM     FICTION
 Job cpu time:       0 days  1 hours 28 minutes 29.1 seconds.
 Elapsed time:       0 days  0 hours  5 minutes 33.9 seconds.
 File lengths (MBytes):  RWF=    111 Int=      0 D2E=      0 Chk=      7 Scr=      1
 Normal termination of Gaussian 16 at Tue Sep 23 00:52:43 2025.
