 Entering Gaussian System, Link 0=g16
 Input=SCIC0159.gjf
 Output=SCIC0159.log
 Initial command:
 /usr/local/g16/l1.exe "/dados_01/scratch/Gau-2279646.inp" -scrdir="/dados_01/scratch/"
 Entering Link 1 = /usr/local/g16/l1.exe PID=   2279647.
  
 Copyright (c) 1988-2017, Gaussian, Inc.  All Rights Reserved.
  
 This is part of the Gaussian(R) 16 program.  It is based on
 the Gaussian(R) 09 system (copyright 2009, Gaussian, Inc.),
 the Gaussian(R) 03 system (copyright 2003, Gaussian, Inc.),
 the Gaussian(R) 98 system (copyright 1998, Gaussian, Inc.),
 the Gaussian(R) 94 system (copyright 1995, Gaussian, Inc.),
 the Gaussian 92(TM) system (copyright 1992, Gaussian, Inc.),
 the Gaussian 90(TM) system (copyright 1990, Gaussian, Inc.),
 the Gaussian 88(TM) system (copyright 1988, Gaussian, Inc.),
 the Gaussian 86(TM) system (copyright 1986, Carnegie Mellon
 University), and the Gaussian 82(TM) system (copyright 1983,
 Carnegie Mellon University). Gaussian is a federally registered
 trademark of Gaussian, Inc.
  
 This software contains proprietary and confidential information,
 including trade secrets, belonging to Gaussian, Inc.
  
 This software is provided under written license and may be
 used, copied, transmitted, or stored only in accord with that
 written license.
  
 The following legend is applicable only to US Government
 contracts under FAR:
  
                    RESTRICTED RIGHTS LEGEND
  
 Use, reproduction and disclosure by the US Government is
 subject to restrictions as set forth in subparagraphs (a)
 and (c) of the Commercial Computer Software - Restricted
 Rights clause in FAR 52.227-19.
  
 Gaussian, Inc.
 340 Quinnipiac St., Bldg. 40, Wallingford CT 06492
  
  
 ---------------------------------------------------------------
 Warning -- This program may not be used in any manner that
 competes with the business of Gaussian, Inc. or will provide
 assistance to any competitor of Gaussian, Inc.  The licensee
 of this program is prohibited from giving any competitor of
 Gaussian, Inc. access to this program.  By using this program,
 the user acknowledges that Gaussian, Inc. is engaged in the
 business of creating and licensing software in the field of
 computational chemistry and represents and warrants to the
 licensee that it is not a competitor of Gaussian, Inc. and that
 it will not use this program in any manner prohibited above.
 ---------------------------------------------------------------
  

 Cite this work as:
 Gaussian 16, Revision B.01,
 M. J. Frisch, G. W. Trucks, H. B. Schlegel, G. E. Scuseria, 
 M. A. Robb, J. R. Cheeseman, G. Scalmani, V. Barone, 
 G. A. Petersson, H. Nakatsuji, X. Li, M. Caricato, A. V. Marenich, 
 J. Bloino, B. G. Janesko, R. Gomperts, B. Mennucci, H. P. Hratchian, 
 J. V. Ortiz, A. F. Izmaylov, J. L. Sonnenberg, D. Williams-Young, 
 F. Ding, F. Lipparini, F. Egidi, J. Goings, B. Peng, A. Petrone, 
 T. Henderson, D. Ranasinghe, V. G. Zakrzewski, J. Gao, N. Rega, 
 G. Zheng, W. Liang, M. Hada, M. Ehara, K. Toyota, R. Fukuda, 
 J. Hasegawa, M. Ishida, T. Nakajima, Y. Honda, O. Kitao, H. Nakai, 
 T. Vreven, K. Throssell, J. A. Montgomery, Jr., J. E. Peralta, 
 F. Ogliaro, M. J. Bearpark, J. J. Heyd, E. N. Brothers, K. N. Kudin, 
 V. N. Staroverov, T. A. Keith, R. Kobayashi, J. Normand, 
 K. Raghavachari, A. P. Rendell, J. C. Burant, S. S. Iyengar, 
 J. Tomasi, M. Cossi, J. M. Millam, M. Klene, C. Adamo, R. Cammi, 
 J. W. Ochterski, R. L. Martin, K. Morokuma, O. Farkas, 
 J. B. Foresman, and D. J. Fox, Gaussian, Inc., Wallingford CT, 2016.
 
 ******************************************
 Gaussian 16:  ES64L-G16RevB.01 20-Dec-2017
                27-Sep-2025 
 ******************************************
 %nprocs=16
 Will use up to   16 processors via shared memory.
 %mem=40GB
 %chk=SCIC0159.chk
 ----------------------------------------------------------------------
 # opt freq=noraman M08HX/6-311++G** scf=xqc Empiricaldispersion=pfd In
 t(Grid=ultraFine)
 ----------------------------------------------------------------------
 1/18=20,19=15,26=4,38=1/1,3;
 2/9=110,12=2,17=6,18=5,40=1/2;
 3/5=4,6=6,7=1111,11=2,25=1,30=1,71=1,74=-74,75=-5,124=11/1,2,3;
 4//1;
 5/5=2,8=3,13=1,38=5/2,8;
 6/7=2,8=2,9=2,10=2,28=1/1;
 7//1,2,3,16;
 1/18=20,19=15,26=4/3(2);
 2/9=110/2;
 99//99;
 2/9=110/2;
 3/5=4,6=6,7=1111,11=2,25=1,30=1,71=1,74=-74,75=-5,124=11/1,2,3;
 4/5=5,16=3,69=1/1;
 5/5=2,8=3,13=1,38=5/2,8;
 7//1,2,3,16;
 1/18=20,19=15,26=4/3(-5);
 2/9=110/2;
 6/7=2,8=2,9=2,10=2,19=2,28=1/1;
 99/9=1/99;
 --------
 SCIC0159
 --------
 Symbolic Z-matrix:
 Charge =  0 Multiplicity = 1
 O                     0.0001    0.9469   -0.0002 
 O                    -2.2631    0.6108   -0.0374 
 O                     2.2632    0.6107    0.0376 
 C                    -0.7462   -1.2618    0.1104 
 C                     0.746    -1.262    -0.1104 
 C                    -1.122     0.1777    0.0022 
 C                     1.122     0.1777   -0.0022 
 H                    -1.0003   -1.6256    1.1102 
 H                    -1.2612   -1.8551   -0.6494 
 H                     1.0001   -1.6257   -1.1103 
 H                     1.261    -1.8553    0.6492 
 

 GradGradGradGradGradGradGradGradGradGradGradGradGradGradGradGradGradGrad
 Berny optimization.
 Initialization pass.
                           ----------------------------
                           !    Initial Parameters    !
                           ! (Angstroms and Degrees)  !
 --------------------------                            --------------------------
 ! Name  Definition              Value          Derivative Info.                !
 --------------------------------------------------------------------------------
 ! R1    R(1,6)                  1.3604         estimate D2E/DX2                !
 ! R2    R(1,7)                  1.3603         estimate D2E/DX2                !
 ! R3    R(2,6)                  1.2212         estimate D2E/DX2                !
 ! R4    R(3,7)                  1.2212         estimate D2E/DX2                !
 ! R5    R(4,5)                  1.5084         estimate D2E/DX2                !
 ! R6    R(4,6)                  1.4917         estimate D2E/DX2                !
 ! R7    R(4,8)                  1.0939         estimate D2E/DX2                !
 ! R8    R(4,9)                  1.0929         estimate D2E/DX2                !
 ! R9    R(5,7)                  1.4919         estimate D2E/DX2                !
 ! R10   R(5,10)                 1.0939         estimate D2E/DX2                !
 ! R11   R(5,11)                 1.0928         estimate D2E/DX2                !
 ! A1    A(6,1,7)              111.134          estimate D2E/DX2                !
 ! A2    A(5,4,6)              103.8115         estimate D2E/DX2                !
 ! A3    A(5,4,8)              111.3178         estimate D2E/DX2                !
 ! A4    A(5,4,9)              111.3644         estimate D2E/DX2                !
 ! A5    A(6,4,8)              109.1916         estimate D2E/DX2                !
 ! A6    A(6,4,9)              110.7764         estimate D2E/DX2                !
 ! A7    A(8,4,9)              110.2068         estimate D2E/DX2                !
 ! A8    A(4,5,7)              103.8019         estimate D2E/DX2                !
 ! A9    A(4,5,10)             111.3229         estimate D2E/DX2                !
 ! A10   A(4,5,11)             111.3778         estimate D2E/DX2                !
 ! A11   A(7,5,10)             109.1832         estimate D2E/DX2                !
 ! A12   A(7,5,11)             110.777          estimate D2E/DX2                !
 ! A13   A(10,5,11)            110.205          estimate D2E/DX2                !
 ! A14   A(1,6,2)              124.7603         estimate D2E/DX2                !
 ! A15   A(1,6,4)              109.7528         estimate D2E/DX2                !
 ! A16   A(2,6,4)              125.452          estimate D2E/DX2                !
 ! A17   A(1,7,3)              124.7621         estimate D2E/DX2                !
 ! A18   A(1,7,5)              109.7508         estimate D2E/DX2                !
 ! A19   A(3,7,5)              125.4521         estimate D2E/DX2                !
 ! D1    D(7,1,6,2)           -177.6164         estimate D2E/DX2                !
 ! D2    D(7,1,6,4)              4.4351         estimate D2E/DX2                !
 ! D3    D(6,1,7,3)           -177.5922         estimate D2E/DX2                !
 ! D4    D(6,1,7,5)              4.4649         estimate D2E/DX2                !
 ! D5    D(6,4,5,7)             12.8456         estimate D2E/DX2                !
 ! D6    D(6,4,5,10)          -104.4844         estimate D2E/DX2                !
 ! D7    D(6,4,5,11)           132.0831         estimate D2E/DX2                !
 ! D8    D(8,4,5,7)           -104.4973         estimate D2E/DX2                !
 ! D9    D(8,4,5,10)           138.1727         estimate D2E/DX2                !
 ! D10   D(8,4,5,11)            14.7402         estimate D2E/DX2                !
 ! D11   D(9,4,5,7)            132.0813         estimate D2E/DX2                !
 ! D12   D(9,4,5,10)            14.7513         estimate D2E/DX2                !
 ! D13   D(9,4,5,11)          -108.6812         estimate D2E/DX2                !
 ! D14   D(5,4,6,1)            -11.1191         estimate D2E/DX2                !
 ! D15   D(5,4,6,2)            170.9498         estimate D2E/DX2                !
 ! D16   D(8,4,6,1)            107.6947         estimate D2E/DX2                !
 ! D17   D(8,4,6,2)            -70.2364         estimate D2E/DX2                !
 ! D18   D(9,4,6,1)           -130.7563         estimate D2E/DX2                !
 ! D19   D(9,4,6,2)             51.3127         estimate D2E/DX2                !
 ! D20   D(4,5,7,1)            -11.1354         estimate D2E/DX2                !
 ! D21   D(4,5,7,3)            170.9392         estimate D2E/DX2                !
 ! D22   D(10,5,7,1)           107.6752         estimate D2E/DX2                !
 ! D23   D(10,5,7,3)           -70.2502         estimate D2E/DX2                !
 ! D24   D(11,5,7,1)          -130.7831         estimate D2E/DX2                !
 ! D25   D(11,5,7,3)            51.2915         estimate D2E/DX2                !
 --------------------------------------------------------------------------------
 Trust Radius=3.00D-01 FncErr=1.00D-07 GrdErr=1.00D-06 EigMax=2.50D+02 EigMin=1.00D-04
 Number of steps in this run=     65 maximum allowed number of steps=    100.
 GradGradGradGradGradGradGradGradGradGradGradGradGradGradGradGradGradGrad

                          Input orientation:                          
 ---------------------------------------------------------------------
 Center     Atomic      Atomic             Coordinates (Angstroms)
 Number     Number       Type             X           Y           Z
 ---------------------------------------------------------------------
      1          8           0        0.000100    0.946900   -0.000200
      2          8           0       -2.263100    0.610800   -0.037400
      3          8           0        2.263200    0.610700    0.037600
      4          6           0       -0.746200   -1.261800    0.110400
      5          6           0        0.746000   -1.262000   -0.110400
      6          6           0       -1.122000    0.177700    0.002200
      7          6           0        1.122000    0.177700   -0.002200
      8          1           0       -1.000300   -1.625600    1.110200
      9          1           0       -1.261200   -1.855100   -0.649400
     10          1           0        1.000100   -1.625700   -1.110300
     11          1           0        1.261000   -1.855300    0.649200
 ---------------------------------------------------------------------
                    Distance matrix (angstroms):
                    1          2          3          4          5
     1  O    0.000000
     2  O    2.288323   0.000000
     3  O    2.288248   4.526921   0.000000
     4  C    2.333999   2.414428   3.545144   0.000000
     5  C    2.334042   3.545052   2.414706   1.508447   0.000000
     6  C    1.360435   1.221169   3.412964   1.491675   2.361110
     7  C    1.360269   3.412875   1.221233   2.361146   1.491918
     8  H    2.975155   2.813029   4.099017   1.093854   2.161396
     9  H    3.140628   2.731119   4.355862   1.092944   2.161282
    10  H    2.974995   4.098966   2.813287   2.161503   1.093912
    11  H    3.140687   4.355726   2.731230   2.161342   1.092805
                    6          7          8          9         10
     6  C    0.000000
     7  C    2.244004   0.000000
     8  H    2.119992   2.998913   0.000000
     9  H    2.139214   3.198560   1.793581   0.000000
    10  H    2.998869   2.120141   2.988682   2.319166   0.000000
    11  H    3.198498   2.139330   2.319216   2.836874   1.793495
                   11
    11  H    0.000000
 Stoichiometry    C4H4O3
 Framework group  C1[X(C4H4O3)]
 Deg. of freedom    27
 Full point group                 C1      NOp   1
 Largest Abelian subgroup         C1      NOp   1
 Largest concise Abelian subgroup C1      NOp   1
                         Standard orientation:                         
 ---------------------------------------------------------------------
 Center     Atomic      Atomic             Coordinates (Angstroms)
 Number     Number       Type             X           Y           Z
 ---------------------------------------------------------------------
      1          8           0        0.000107   -0.997379    0.000196
      2          8           0       -2.263004   -0.661293    0.042620
      3          8           0        2.263111   -0.661165   -0.042830
      4          6           0       -0.746460    1.211316   -0.108685
      5          6           0        0.746245    1.211526    0.108670
      6          6           0       -1.122001   -0.228186    0.000385
      7          6           0        1.122003   -0.228172   -0.000396
      8          1           0       -1.002870    1.575113   -1.107896
      9          1           0       -1.259708    1.804614    0.652302
     10          1           0        1.002651    1.575229    1.107980
     11          1           0        1.259487    1.804828   -0.652118
 ---------------------------------------------------------------------
 Rotational constants (GHZ):           6.2270695           2.3363179           1.7419126
 Standard basis: 6-311++G(d,p) (5D, 7F)
 There are   189 symmetry adapted cartesian basis functions of A   symmetry.
 There are   182 symmetry adapted basis functions of A   symmetry.
   182 basis functions,   288 primitive gaussians,   189 cartesian basis functions
    26 alpha electrons       26 beta electrons
       nuclear repulsion energy       295.4693924475 Hartrees.
 NAtoms=   11 NActive=   11 NUniq=   11 SFac= 1.00D+00 NAtFMM=   60 NAOKFM=F Big=F
 Integral buffers will be    131072 words long.
 Raffenetti 2 integral format.
 Two-electron integral symmetry is turned on.
 R6APFD:  NTU= -4 IXU= 1 FactS= 1.050
 Nuclear repulsion after empirical dispersion term =      295.4635598750 Hartrees.
 One-electron integrals computed using PRISM.
 NBasis=   182 RedAO= T EigKep=  1.34D-05  NBF=   182
 NBsUse=   182 1.00D-06 EigRej= -1.00D+00 NBFU=   182
 ExpMin= 3.60D-02 ExpMax= 8.59D+03 ExpMxC= 1.30D+03 IAcc=3 IRadAn=         5 AccDes= 0.00D+00
 Harris functional with IExCor= 1009 and IRadAn=       5 diagonalized for initial guess.
 HarFok:  IExCor= 1009 AccDes= 0.00D+00 IRadAn=         5 IDoV= 1 UseB2=F ITyADJ=14
 ICtDFT=  3500011 ScaDFX=  1.000000  1.000000  1.000000  1.000000
 FoFCou: FMM=F IPFlag=           0 FMFlag=      100000 FMFlg1=           0
         NFxFlg=           0 DoJE=T BraDBF=F KetDBF=T FulRan=T
         wScrn=  0.000000 ICntrl=       500 IOpCl=  0 I1Cent=   200000004 NGrid=           0
         NMat0=    1 NMatS0=      1 NMatT0=    0 NMatD0=    1 NMtDS0=    0 NMtDT0=    0
 Petite list used in FoFCou.
 Keep R1 ints in memory in canonical form, NReq=154968096.
 Requested convergence on RMS density matrix=1.00D-08 within  32 cycles.
 Requested convergence on MAX density matrix=1.00D-06.
 Requested convergence on             energy=1.00D-06.
 No special actions if energy rises.
 SCF Done:  E(RM08HX) =  -380.492245152     A.U. after   12 cycles
            NFock= 12  Conv=0.84D-08     -V/T= 2.0038
 QCSCF skips out because SCF is already converged.

 **********************************************************************

            Population analysis using the SCF Density.

 **********************************************************************

 Orbital symmetries:
       Occupied  (A) (A) (A) (A) (A) (A) (A) (A) (A) (A) (A) (A)
                 (A) (A) (A) (A) (A) (A) (A) (A) (A) (A) (A) (A)
                 (A) (A)
       Virtual   (A) (A) (A) (A) (A) (A) (A) (A) (A) (A) (A) (A)
                 (A) (A) (A) (A) (A) (A) (A) (A) (A) (A) (A) (A)
                 (A) (A) (A) (A) (A) (A) (A) (A) (A) (A) (A) (A)
                 (A) (A) (A) (A) (A) (A) (A) (A) (A) (A) (A) (A)
                 (A) (A) (A) (A) (A) (A) (A) (A) (A) (A) (A) (A)
                 (A) (A) (A) (A) (A) (A) (A) (A) (A) (A) (A) (A)
                 (A) (A) (A) (A) (A) (A) (A) (A) (A) (A) (A) (A)
                 (A) (A) (A) (A) (A) (A) (A) (A) (A) (A) (A) (A)
                 (A) (A) (A) (A) (A) (A) (A) (A) (A) (A) (A) (A)
                 (A) (A) (A) (A) (A) (A) (A) (A) (A) (A) (A) (A)
                 (A) (A) (A) (A) (A) (A) (A) (A) (A) (A) (A) (A)
                 (A) (A) (A) (A) (A) (A) (A) (A) (A) (A) (A) (A)
                 (A) (A) (A) (A) (A) (A) (A) (A) (A) (A) (A) (A)
 The electronic state is 1-A.
 Alpha  occ. eigenvalues --  -19.71690 -19.63594 -19.63590 -10.70750 -10.70748
 Alpha  occ. eigenvalues --  -10.58302 -10.58260  -1.30713  -1.20223  -1.16842
 Alpha  occ. eigenvalues --   -0.96365  -0.83840  -0.77182  -0.69233  -0.63753
 Alpha  occ. eigenvalues --   -0.59722  -0.57681  -0.54931  -0.53077  -0.52269
 Alpha  occ. eigenvalues --   -0.51987  -0.49499  -0.44504  -0.41706  -0.39702
 Alpha  occ. eigenvalues --   -0.37827
 Alpha virt. eigenvalues --   -0.04425  -0.02316  -0.01953  -0.00943  -0.00035
 Alpha virt. eigenvalues --    0.00903   0.02854   0.03235   0.03800   0.03819
 Alpha virt. eigenvalues --    0.04269   0.08164   0.08333   0.08534   0.08934
 Alpha virt. eigenvalues --    0.09047   0.10199   0.10953   0.11350   0.12635
 Alpha virt. eigenvalues --    0.14355   0.14548   0.18740   0.19858   0.20902
 Alpha virt. eigenvalues --    0.22561   0.23219   0.23641   0.26134   0.26720
 Alpha virt. eigenvalues --    0.27704   0.28655   0.28805   0.29411   0.29487
 Alpha virt. eigenvalues --    0.30878   0.32193   0.33616   0.33753   0.33927
 Alpha virt. eigenvalues --    0.34439   0.41118   0.42602   0.43856   0.46148
 Alpha virt. eigenvalues --    0.47524   0.49097   0.56782   0.57506   0.59101
 Alpha virt. eigenvalues --    0.60215   0.61157   0.64114   0.66311   0.68044
 Alpha virt. eigenvalues --    0.68410   0.70976   0.71977   0.75669   0.77307
 Alpha virt. eigenvalues --    0.82788   0.85088   0.87915   0.93277   1.01460
 Alpha virt. eigenvalues --    1.04207   1.12377   1.16109   1.17359   1.18073
 Alpha virt. eigenvalues --    1.18517   1.20236   1.22427   1.24595   1.24835
 Alpha virt. eigenvalues --    1.29754   1.30476   1.35430   1.39124   1.43608
 Alpha virt. eigenvalues --    1.46852   1.49035   1.52187   1.55280   1.58826
 Alpha virt. eigenvalues --    1.59044   1.60897   1.63558   1.64609   1.66806
 Alpha virt. eigenvalues --    1.76614   1.78075   1.79902   1.82410   1.85669
 Alpha virt. eigenvalues --    1.92290   1.93448   1.98986   2.01840   2.12677
 Alpha virt. eigenvalues --    2.17714   2.18820   2.29170   2.30482   2.43308
 Alpha virt. eigenvalues --    2.47707   2.54362   2.55916   2.59702   2.64206
 Alpha virt. eigenvalues --    2.66886   2.71822   2.72404   2.80550   2.81171
 Alpha virt. eigenvalues --    2.89990   2.91576   2.93062   2.94427   2.96770
 Alpha virt. eigenvalues --    3.04840   3.11981   3.15444   3.23272   3.24242
 Alpha virt. eigenvalues --    3.25834   3.39959   3.40399   3.40752   3.55590
 Alpha virt. eigenvalues --    3.59647   3.65445   3.70678   3.74003   3.98180
 Alpha virt. eigenvalues --    4.06237   4.07001   4.14720   4.26505   4.41642
 Alpha virt. eigenvalues --    5.03792   5.10742   5.14253   5.22042   5.27350
 Alpha virt. eigenvalues --    5.45534   5.64393   5.80534   6.01908  23.83639
 Alpha virt. eigenvalues --   23.86155  23.92564  23.93715  49.84114  49.95978
 Alpha virt. eigenvalues --   50.04087
          Condensed to atoms (all electrons):
               1          2          3          4          5          6
     1  O    8.347275  -0.063093  -0.063095   0.000163   0.000248  -0.119182
     2  O   -0.063093   7.936242   0.001398  -0.114638  -0.020593   0.510306
     3  O   -0.063095   0.001398   7.936253  -0.020590  -0.114537   0.022532
     4  C    0.000163  -0.114638  -0.020590   7.332978  -1.187557  -0.637056
     5  C    0.000248  -0.020593  -0.114537  -1.187557   7.332646   0.254269
     6  C   -0.119182   0.510306   0.022532  -0.637056   0.254269   5.953155
     7  C   -0.119344   0.022552   0.510263   0.254152  -0.636835   0.001358
     8  H    0.006036  -0.008401   0.001551   0.432794  -0.017835  -0.056530
     9  H   -0.005732  -0.008354   0.001213   0.497384  -0.107941  -0.062830
    10  H    0.006032   0.001551  -0.008389  -0.017819   0.432771  -0.020339
    11  H   -0.005736   0.001216  -0.008346  -0.107954   0.497352   0.024449
               7          8          9         10         11
     1  O   -0.119344   0.006036  -0.005732   0.006032  -0.005736
     2  O    0.022552  -0.008401  -0.008354   0.001551   0.001216
     3  O    0.510263   0.001551   0.001213  -0.008389  -0.008346
     4  C    0.254152   0.432794   0.497384  -0.017819  -0.107954
     5  C   -0.636835  -0.017835  -0.107941   0.432771   0.497352
     6  C    0.001358  -0.056530  -0.062830  -0.020339   0.024449
     7  C    5.953218  -0.020329   0.024430  -0.056539  -0.062799
     8  H   -0.020329   0.406306  -0.017997  -0.002135  -0.000608
     9  H    0.024430  -0.017997   0.407656  -0.000619  -0.002133
    10  H   -0.056539  -0.002135  -0.000619   0.406357  -0.018004
    11  H   -0.062799  -0.000608  -0.002133  -0.018004   0.407651
 Mulliken charges:
               1
     1  O    0.016428
     2  O   -0.258186
     3  O   -0.258254
     4  C   -0.431857
     5  C   -0.431988
     6  C    0.129867
     7  C    0.129873
     8  H    0.277148
     9  H    0.274924
    10  H    0.277134
    11  H    0.274911
 Sum of Mulliken charges =  -0.00000
 Mulliken charges with hydrogens summed into heavy atoms:
               1
     1  O    0.016428
     2  O   -0.258186
     3  O   -0.258254
     4  C    0.120214
     5  C    0.120057
     6  C    0.129867
     7  C    0.129873
 Electronic spatial extent (au):  <R**2>=            658.2080
 Charge=              0.0000 electrons
 Dipole moment (field-independent basis, Debye):
    X=             -0.0015    Y=              4.6440    Z=              0.0002  Tot=              4.6440
 Quadrupole moment (field-independent basis, Debye-Ang):
   XX=            -54.4123   YY=            -39.7020   ZZ=            -36.8050
   XY=              0.0000   XZ=              0.5620   YZ=              0.0001
 Traceless Quadrupole moment (field-independent basis, Debye-Ang):
   XX=            -10.7725   YY=              3.9378   ZZ=              6.8347
   XY=              0.0000   XZ=              0.5620   YZ=              0.0001
 Octapole moment (field-independent basis, Debye-Ang**2):
  XXX=             -0.0093  YYY=              3.4758  ZZZ=              0.0001  XYY=             -0.0005
  XXY=             12.5421  XXZ=              0.0030  XZZ=             -0.0014  YZZ=              0.8740
  YYZ=             -0.0003  XYZ=             -0.5289
 Hexadecapole moment (field-independent basis, Debye-Ang**3):
 XXXX=           -626.0872 YYYY=           -240.9318 ZZZZ=            -47.8982 XXXY=              0.0025
 XXXZ=              1.0570 YYYX=              0.0017 YYYZ=             -0.0009 ZZZX=              1.1229
 ZZZY=             -0.0002 XXYY=           -132.1391 XXZZ=            -91.0948 YYZZ=            -43.1446
 XXYZ=             -0.0014 YYXZ=             -0.7801 ZZXY=             -0.0003
 N-N= 2.954635598750D+02 E-N=-1.482088365881D+03  KE= 3.790495286041D+02
 R6APFD:  NTU= -4 IXU= 1 FactS= 1.050
 Calling FoFJK, ICntrl=      2127 FMM=F ISym2X=0 I1Cent= 0 IOpClX= 0 NMat=1 NMatS=1 NMatT=0.
 ***** Axes restored to original set *****
 -------------------------------------------------------------------
 Center     Atomic                   Forces (Hartrees/Bohr)
 Number     Number              X              Y              Z
 -------------------------------------------------------------------
      1        8          -0.000062479    0.016329309    0.000008609
      2        8           0.057585685   -0.008475294    0.000223142
      3        8          -0.057648080   -0.008509165   -0.000236234
      4        6           0.002620433   -0.014129785   -0.005362424
      5        6          -0.002588119   -0.013939901    0.005274781
      6        6          -0.068972498    0.013480294    0.001695029
      7        6           0.069060114    0.013347423   -0.001703181
      8        1          -0.005273543   -0.000006747   -0.000244036
      9        1          -0.007015480    0.000974380    0.004077417
     10        1           0.005253672    0.000003500    0.000275926
     11        1           0.007040296    0.000925985   -0.004009029
 -------------------------------------------------------------------
 Cartesian Forces:  Max     0.069060114 RMS     0.023091062

 GradGradGradGradGradGradGradGradGradGradGradGradGradGradGradGradGradGrad
 Berny optimization.
 FormGI is forming the generalized inverse of G from B-inverse, IUseBI=4.
 Internal  Forces:  Max     0.056894860 RMS     0.012389447
 Search for a local minimum.
 Step number   1 out of a maximum of   65
 All quantities printed in internal units (Hartrees-Bohrs-Radians)
 Mixed Optimization -- RFO/linear search
 Second derivative matrix not updated -- first step.
 ITU=  0
     Eigenvalues ---    0.00792   0.01155   0.01227   0.01593   0.04560
     Eigenvalues ---    0.04597   0.05883   0.06199   0.08307   0.08377
     Eigenvalues ---    0.08556   0.10757   0.22701   0.24566   0.24980
     Eigenvalues ---    0.24983   0.30711   0.31562   0.33088   0.34364
     Eigenvalues ---    0.34371   0.34475   0.34491   0.49893   0.51339
     Eigenvalues ---    0.94839   0.94867
 RFO step:  Lambda=-1.49795216D-02 EMin= 7.91864796D-03
 Linear search not attempted -- first point.
 Iteration  1 RMS(Cart)=  0.04282528 RMS(Int)=  0.00129975
 Iteration  2 RMS(Cart)=  0.00129170 RMS(Int)=  0.00052585
 Iteration  3 RMS(Cart)=  0.00000153 RMS(Int)=  0.00052585
 Iteration  4 RMS(Cart)=  0.00000000 RMS(Int)=  0.00052585
 Variable       Old X    -DE/DX   Delta X   Delta X   Delta X     New X
                                 (Linear)    (Quad)   (Total)
    R1        2.57085   0.00643   0.00000   0.01204   0.01206   2.58291
    R2        2.57054   0.00651   0.00000   0.01217   0.01220   2.58273
    R3        2.30767  -0.05682   0.00000  -0.05897  -0.05897   2.24871
    R4        2.30780  -0.05689   0.00000  -0.05906  -0.05906   2.24874
    R5        2.85055   0.01861   0.00000   0.05580   0.05582   2.90637
    R6        2.81886   0.01490   0.00000   0.04285   0.04282   2.86168
    R7        2.06709   0.00100   0.00000   0.00280   0.00280   2.06989
    R8        2.06536  -0.00006   0.00000  -0.00016  -0.00016   2.06520
    R9        2.81932   0.01478   0.00000   0.04252   0.04249   2.86181
   R10        2.06719   0.00097   0.00000   0.00270   0.00270   2.06989
   R11        2.06510   0.00003   0.00000   0.00008   0.00008   2.06518
    A1        1.93965   0.00219   0.00000   0.00929   0.00922   1.94888
    A2        1.81185  -0.00212   0.00000  -0.00577  -0.00579   1.80606
    A3        1.94286   0.00306   0.00000   0.02493   0.02469   1.96755
    A4        1.94368   0.00602   0.00000   0.05832   0.05804   2.00172
    A5        1.90575  -0.00187   0.00000  -0.02747  -0.02739   1.87836
    A6        1.93341  -0.00147   0.00000  -0.01681  -0.01722   1.91619
    A7        1.92347  -0.00361   0.00000  -0.03296  -0.03455   1.88892
    A8        1.81169  -0.00209   0.00000  -0.00566  -0.00569   1.80600
    A9        1.94295   0.00304   0.00000   0.02485   0.02461   1.96757
   A10        1.94391   0.00599   0.00000   0.05817   0.05790   2.00180
   A11        1.90561  -0.00188   0.00000  -0.02744  -0.02736   1.87825
   A12        1.93342  -0.00147   0.00000  -0.01679  -0.01721   1.91621
   A13        1.92344  -0.00360   0.00000  -0.03291  -0.03449   1.88895
   A14        2.17748  -0.01509   0.00000  -0.05684  -0.05696   2.12052
   A15        1.91555   0.00117   0.00000   0.00514   0.00494   1.92049
   A16        2.18955   0.01394   0.00000   0.05270   0.05260   2.24215
   A17        2.17751  -0.01508   0.00000  -0.05680  -0.05692   2.12059
   A18        1.91551   0.00119   0.00000   0.00519   0.00500   1.92051
   A19        2.18955   0.01391   0.00000   0.05261   0.05251   2.24206
    D1       -3.09999   0.00078   0.00000   0.02109   0.01952  -3.08047
    D2        0.07741  -0.00028   0.00000  -0.00964  -0.00981   0.06759
    D3       -3.09957   0.00078   0.00000   0.02108   0.01951  -3.08006
    D4        0.07793  -0.00029   0.00000  -0.00986  -0.01003   0.06790
    D5        0.22420  -0.00176   0.00000  -0.03158  -0.03156   0.19264
    D6       -1.82360   0.00017   0.00000  -0.00802  -0.00773  -1.83133
    D7        2.30528  -0.00173   0.00000  -0.02567  -0.02584   2.27945
    D8       -1.82382   0.00017   0.00000  -0.00796  -0.00767  -1.83149
    D9        2.41157   0.00211   0.00000   0.01560   0.01616   2.42773
   D10        0.25726   0.00021   0.00000  -0.00204  -0.00194   0.25532
   D11        2.30525  -0.00173   0.00000  -0.02567  -0.02584   2.27941
   D12        0.25746   0.00020   0.00000  -0.00211  -0.00201   0.25544
   D13       -1.89685  -0.00169   0.00000  -0.01976  -0.02012  -1.91696
   D14       -0.19407   0.00113   0.00000   0.02589   0.02609  -0.16798
   D15        2.98364   0.00080   0.00000  -0.00232  -0.00298   2.98065
   D16        1.87963   0.00267   0.00000   0.03876   0.03882   1.91845
   D17       -1.22586   0.00233   0.00000   0.01054   0.00975  -1.21611
   D18       -2.28213  -0.00401   0.00000  -0.03123  -0.03035  -2.31248
   D19        0.89557  -0.00435   0.00000  -0.05944  -0.05942   0.83615
   D20       -0.19435   0.00114   0.00000   0.02600   0.02620  -0.16815
   D21        2.98345   0.00079   0.00000  -0.00242  -0.00308   2.98037
   D22        1.87929   0.00267   0.00000   0.03885   0.03892   1.91821
   D23       -1.22610   0.00233   0.00000   0.01044   0.00964  -1.21646
   D24       -2.28260  -0.00400   0.00000  -0.03102  -0.03014  -2.31273
   D25        0.89521  -0.00434   0.00000  -0.05943  -0.05942   0.83579
         Item               Value     Threshold  Converged?
 Maximum Force            0.056895     0.000450     NO 
 RMS     Force            0.012389     0.000300     NO 
 Maximum Displacement     0.121343     0.001800     NO 
 RMS     Displacement     0.042377     0.001200     NO 
 Predicted change in Energy=-7.897818D-03
 GradGradGradGradGradGradGradGradGradGradGradGradGradGradGradGradGradGrad

                          Input orientation:                          
 ---------------------------------------------------------------------
 Center     Atomic      Atomic             Coordinates (Angstroms)
 Number     Number       Type             X           Y           Z
 ---------------------------------------------------------------------
      1          8           0        0.000066    0.943586   -0.000154
      2          8           0       -2.214594    0.664818   -0.035813
      3          8           0        2.214659    0.664562    0.036001
      4          6           0       -0.761817   -1.289819    0.105328
      5          6           0        0.761665   -1.289926   -0.105380
      6          6           0       -1.130781    0.175998    0.013386
      7          6           0        1.130756    0.175931   -0.013456
      8          1           0       -1.051442   -1.642847    1.100944
      9          1           0       -1.325369   -1.860486   -0.637024
     10          1           0        1.051246   -1.642864   -1.101044
     11          1           0        1.325212   -1.860653    0.636912
 ---------------------------------------------------------------------
                    Distance matrix (angstroms):
                    1          2          3          4          5
     1  O    0.000000
     2  O    2.232421   0.000000
     3  O    2.232395   4.429836   0.000000
     4  C    2.362136   2.439485   3.561436   0.000000
     5  C    2.362134   3.561458   2.439510   1.537984   0.000000
     6  C    1.366817   1.189965   3.381002   1.514334   2.396745
     7  C    1.366723   3.380958   1.189981   2.396740   1.514402
     8  H    3.001286   2.823200   4.138316   1.095337   2.206156
     9  H    3.166259   2.743963   4.400072   1.092858   2.227980
    10  H    3.001110   4.138336   2.823228   2.206167   1.095340
    11  H    3.166326   4.400090   2.743889   2.228031   1.092846
                    6          7          8          9         10
     6  C    0.000000
     7  C    2.261696   0.000000
     8  H    2.120678   3.051528   0.000000
     9  H    2.146664   3.250904   1.772833   0.000000
    10  H    3.051468   2.120656   3.044675   2.431250   0.000000
    11  H    3.250944   2.146734   2.431306   2.940832   1.772845
                   11
    11  H    0.000000
 Stoichiometry    C4H4O3
 Framework group  C1[X(C4H4O3)]
 Deg. of freedom    27
 Full point group                 C1      NOp   1
 Largest Abelian subgroup         C1      NOp   1
 Largest concise Abelian subgroup C1      NOp   1
                         Standard orientation:                         
 ---------------------------------------------------------------------
 Center     Atomic      Atomic             Coordinates (Angstroms)
 Number     Number       Type             X           Y           Z
 ---------------------------------------------------------------------
      1          8           0        0.000022   -0.985701    0.000150
      2          8           0       -2.214425   -0.706817    0.046534
      3          8           0        2.214429   -0.706794   -0.046735
      4          6           0       -0.762246    1.247742   -0.101661
      5          6           0        0.762238    1.247771    0.101664
      6          6           0       -1.130837   -0.218055   -0.007919
      7          6           0        1.130803   -0.218105    0.007967
      8          1           0       -1.056672    1.600776   -1.095865
      9          1           0       -1.322166    1.818445    0.643408
     10          1           0        1.056658    1.600703    1.095911
     11          1           0        1.322213    1.818462   -0.643354
 ---------------------------------------------------------------------
 Rotational constants (GHZ):           5.9475288           2.3968535           1.7506599
 Standard basis: 6-311++G(d,p) (5D, 7F)
 There are   189 symmetry adapted cartesian basis functions of A   symmetry.
 There are   182 symmetry adapted basis functions of A   symmetry.
   182 basis functions,   288 primitive gaussians,   189 cartesian basis functions
    26 alpha electrons       26 beta electrons
       nuclear repulsion energy       295.5923137277 Hartrees.
 NAtoms=   11 NActive=   11 NUniq=   11 SFac= 1.00D+00 NAtFMM=   60 NAOKFM=F Big=F
 Integral buffers will be    131072 words long.
 Raffenetti 2 integral format.
 Two-electron integral symmetry is turned on.
 R6APFD:  NTU= -4 IXU= 1 FactS= 1.050
 Nuclear repulsion after empirical dispersion term =      295.5865623542 Hartrees.
 One-electron integrals computed using PRISM.
 NBasis=   182 RedAO= T EigKep=  1.40D-05  NBF=   182
 NBsUse=   182 1.00D-06 EigRej= -1.00D+00 NBFU=   182
 Initial guess from the checkpoint file:  "SCIC0159.chk"
 B after Tr=     0.000000   -0.000000   -0.000000
         Rot=    1.000000   -0.000001   -0.000836    0.000024 Ang=  -0.10 deg.
 ExpMin= 3.60D-02 ExpMax= 8.59D+03 ExpMxC= 1.30D+03 IAcc=3 IRadAn=         5 AccDes= 0.00D+00
 Harris functional with IExCor= 1009 and IRadAn=       5 diagonalized for initial guess.
 HarFok:  IExCor= 1009 AccDes= 0.00D+00 IRadAn=         5 IDoV= 1 UseB2=F ITyADJ=14
 ICtDFT=  3500011 ScaDFX=  1.000000  1.000000  1.000000  1.000000
 FoFCou: FMM=F IPFlag=           0 FMFlag=      100000 FMFlg1=           0
         NFxFlg=           0 DoJE=T BraDBF=F KetDBF=T FulRan=T
         wScrn=  0.000000 ICntrl=       500 IOpCl=  0 I1Cent=   200000004 NGrid=           0
         NMat0=    1 NMatS0=      1 NMatT0=    0 NMatD0=    1 NMtDS0=    0 NMtDT0=    0
 Petite list used in FoFCou.
 Keep R1 ints in memory in canonical form, NReq=154968096.
 Requested convergence on RMS density matrix=1.00D-08 within  32 cycles.
 Requested convergence on MAX density matrix=1.00D-06.
 Requested convergence on             energy=1.00D-06.
 No special actions if energy rises.
 SCF Done:  E(RM08HX) =  -380.500329443     A.U. after   12 cycles
            NFock= 12  Conv=0.27D-08     -V/T= 2.0036
 QCSCF skips out because SCF is already converged.
 R6APFD:  NTU= -4 IXU= 1 FactS= 1.050
 Calling FoFJK, ICntrl=      2127 FMM=F ISym2X=0 I1Cent= 0 IOpClX= 0 NMat=1 NMatS=1 NMatT=0.
 ***** Axes restored to original set *****
 -------------------------------------------------------------------
 Center     Atomic                   Forces (Hartrees/Bohr)
 Number     Number              X              Y              Z
 -------------------------------------------------------------------
      1        8          -0.000031543    0.002700347   -0.000001075
      2        8           0.007006790   -0.004149819    0.000934401
      3        8          -0.007018092   -0.004145616   -0.000944902
      4        6           0.008455941   -0.001533750   -0.001223844
      5        6          -0.008449849   -0.001481497    0.001208466
      6        6          -0.017343281    0.004683036   -0.002095223
      7        6           0.017385821    0.004625681    0.002113991
      8        1          -0.000490918   -0.000663605    0.000122202
      9        1          -0.000843728    0.000319230    0.000521605
     10        1           0.000486709   -0.000670834   -0.000119868
     11        1           0.000842150    0.000316828   -0.000515751
 -------------------------------------------------------------------
 Cartesian Forces:  Max     0.017385821 RMS     0.005368327

 GradGradGradGradGradGradGradGradGradGradGradGradGradGradGradGradGradGrad
 Berny optimization.
 Using GEDIIS/GDIIS optimizer.
 FormGI is forming the generalized inverse of G from B-inverse, IUseBI=4.
 Internal  Forces:  Max     0.008134069 RMS     0.002358741
 Search for a local minimum.
 Step number   2 out of a maximum of   65
 All quantities printed in internal units (Hartrees-Bohrs-Radians)
 Mixed Optimization -- RFO/linear search
 Update second derivatives using D2CorX and points    1    2
 DE= -8.08D-03 DEPred=-7.90D-03 R= 1.02D+00
 TightC=F SS=  1.41D+00  RLast= 2.37D-01 DXNew= 5.0454D-01 7.1130D-01
 Trust test= 1.02D+00 RLast= 2.37D-01 DXMaxT set to 5.05D-01
 ITU=  1  0
 Use linear search instead of GDIIS.
     Eigenvalues ---    0.00788   0.01115   0.01201   0.01608   0.04431
     Eigenvalues ---    0.04529   0.05569   0.05906   0.08597   0.08642
     Eigenvalues ---    0.08660   0.10758   0.22666   0.23931   0.24999
     Eigenvalues ---    0.26704   0.31595   0.32206   0.33235   0.34365
     Eigenvalues ---    0.34371   0.34475   0.34491   0.48793   0.51386
     Eigenvalues ---    0.85655   0.94853
 RFO step:  Lambda=-7.62243015D-04 EMin= 7.87861240D-03
 Quartic linear search produced a step of  0.06822.
 Iteration  1 RMS(Cart)=  0.00670045 RMS(Int)=  0.00012776
 Iteration  2 RMS(Cart)=  0.00011192 RMS(Int)=  0.00007914
 Iteration  3 RMS(Cart)=  0.00000001 RMS(Int)=  0.00007914
 Variable       Old X    -DE/DX   Delta X   Delta X   Delta X     New X
                                 (Linear)    (Quad)   (Total)
    R1        2.58291   0.00639   0.00082   0.01394   0.01477   2.59768
    R2        2.58273   0.00643   0.00083   0.01401   0.01485   2.59758
    R3        2.24871  -0.00813  -0.00402  -0.00845  -0.01247   2.23624
    R4        2.24874  -0.00813  -0.00403  -0.00846  -0.01249   2.23625
    R5        2.90637  -0.00373   0.00381  -0.01597  -0.01218   2.89419
    R6        2.86168   0.00271   0.00292   0.00747   0.01039   2.87207
    R7        2.06989   0.00046   0.00019   0.00137   0.00156   2.07145
    R8        2.06520  -0.00009  -0.00001  -0.00026  -0.00028   2.06493
    R9        2.86181   0.00268   0.00290   0.00739   0.01029   2.87210
   R10        2.06989   0.00045   0.00018   0.00137   0.00155   2.07144
   R11        2.06518  -0.00008   0.00001  -0.00025  -0.00025   2.06493
    A1        1.94888   0.00118   0.00063   0.00917   0.00990   1.95878
    A2        1.80606   0.00263  -0.00040   0.00790   0.00750   1.81356
    A3        1.96755  -0.00061   0.00168  -0.00069   0.00094   1.96850
    A4        2.00172   0.00010   0.00396   0.00427   0.00825   2.00997
    A5        1.87836  -0.00050  -0.00187   0.00322   0.00138   1.87974
    A6        1.91619  -0.00156  -0.00118  -0.00786  -0.00915   1.90704
    A7        1.88892  -0.00009  -0.00236  -0.00651  -0.00898   1.87994
    A8        1.80600   0.00264  -0.00039   0.00794   0.00755   1.81355
    A9        1.96757  -0.00061   0.00168  -0.00073   0.00090   1.96846
   A10        2.00180   0.00010   0.00395   0.00422   0.00819   2.01000
   A11        1.87825  -0.00049  -0.00187   0.00331   0.00146   1.87971
   A12        1.91621  -0.00157  -0.00117  -0.00788  -0.00916   1.90705
   A13        1.88895  -0.00009  -0.00235  -0.00651  -0.00898   1.87997
   A14        2.12052   0.00266  -0.00389   0.01228   0.00821   2.12873
   A15        1.92049  -0.00324   0.00034  -0.01403  -0.01379   1.90670
   A16        2.24215   0.00058   0.00359   0.00155   0.00496   2.24711
   A17        2.12059   0.00265  -0.00388   0.01226   0.00818   2.12878
   A18        1.92051  -0.00324   0.00034  -0.01405  -0.01380   1.90671
   A19        2.24206   0.00058   0.00358   0.00159   0.00499   2.24705
    D1       -3.08047  -0.00051   0.00133  -0.02709  -0.02589  -3.10635
    D2        0.06759  -0.00021  -0.00067   0.00358   0.00285   0.07044
    D3       -3.08006  -0.00052   0.00133  -0.02739  -0.02619  -3.10625
    D4        0.06790  -0.00021  -0.00068   0.00375   0.00301   0.07090
    D5        0.19264   0.00056  -0.00215   0.01450   0.01242   0.20505
    D6       -1.83133  -0.00010  -0.00053   0.00630   0.00583  -1.82550
    D7        2.27945   0.00045  -0.00176   0.01240   0.01068   2.29013
    D8       -1.83149  -0.00010  -0.00052   0.00641   0.00593  -1.82556
    D9        2.42773  -0.00077   0.00110  -0.00179  -0.00066   2.42707
   D10        0.25532  -0.00021  -0.00013   0.00431   0.00419   0.25951
   D11        2.27941   0.00045  -0.00176   0.01242   0.01070   2.29011
   D12        0.25544  -0.00021  -0.00014   0.00422   0.00410   0.25955
   D13       -1.91696   0.00034  -0.00137   0.01032   0.00895  -1.90801
   D14       -0.16798   0.00000   0.00178  -0.01081  -0.00899  -0.17697
   D15        2.98065   0.00033  -0.00020   0.02254   0.02227   3.00292
   D16        1.91845   0.00040   0.00265  -0.00618  -0.00348   1.91497
   D17       -1.21611   0.00073   0.00067   0.02718   0.02778  -1.18833
   D18       -2.31248  -0.00084  -0.00207  -0.01640  -0.01834  -2.33082
   D19        0.83615  -0.00052  -0.00405   0.01695   0.01292   0.84907
   D20       -0.16815   0.00000   0.00179  -0.01091  -0.00908  -0.17723
   D21        2.98037   0.00033  -0.00021   0.02295   0.02267   3.00304
   D22        1.91821   0.00040   0.00266  -0.00627  -0.00356   1.91465
   D23       -1.21646   0.00073   0.00066   0.02760   0.02819  -1.18827
   D24       -2.31273  -0.00084  -0.00206  -0.01646  -0.01838  -2.33111
   D25        0.83579  -0.00052  -0.00405   0.01740   0.01337   0.84915
         Item               Value     Threshold  Converged?
 Maximum Force            0.008134     0.000450     NO 
 RMS     Force            0.002359     0.000300     NO 
 Maximum Displacement     0.020741     0.001800     NO 
 RMS     Displacement     0.006687     0.001200     NO 
 Predicted change in Energy=-4.165943D-04
 GradGradGradGradGradGradGradGradGradGradGradGradGradGradGradGradGradGrad

                          Input orientation:                          
 ---------------------------------------------------------------------
 Center     Atomic      Atomic             Coordinates (Angstroms)
 Number     Number       Type             X           Y           Z
 ---------------------------------------------------------------------
      1          8           0        0.000060    0.944653   -0.000107
      2          8           0       -2.220660    0.661952   -0.030532
      3          8           0        2.220730    0.661705    0.030528
      4          6           0       -0.758880   -1.289228    0.102973
      5          6           0        0.758741   -1.289295   -0.103018
      6          6           0       -1.141142    0.178317    0.002550
      7          6           0        1.141135    0.178221   -0.002480
      8          1           0       -1.052242   -1.642697    1.098247
      9          1           0       -1.327809   -1.861233   -0.634014
     10          1           0        1.052026   -1.642673   -1.098346
     11          1           0        1.327641   -1.861422    0.633900
 ---------------------------------------------------------------------
                    Distance matrix (angstroms):
                    1          2          3          4          5
     1  O    0.000000
     2  O    2.238849   0.000000
     3  O    2.238834   4.441811   0.000000
     4  C    2.361533   2.441665   3.562228   0.000000
     5  C    2.361507   3.562226   2.441649   1.531537   0.000000
     6  C    1.374635   1.183367   3.396562   1.519834   2.403037
     7  C    1.374582   3.396535   1.183374   2.403036   1.519848
     8  H    3.001350   2.819707   4.142782   1.096162   2.201724
     9  H    3.168291   2.743691   4.404426   1.092712   2.227725
    10  H    3.001170   4.142705   2.819643   2.201697   1.096161
    11  H    3.168359   4.404467   2.743691   2.227748   1.092714
                    6          7          8          9         10
     6  C    0.000000
     7  C    2.282282   0.000000
     8  H    2.127098   3.055854   0.000000
     9  H    2.144719   3.264030   1.767604   0.000000
    10  H    3.055808   2.127092   3.041868   2.434541   0.000000
    11  H    3.264051   2.144740   2.434605   2.942621   1.767623
                   11
    11  H    0.000000
 Stoichiometry    C4H4O3
 Framework group  C1[X(C4H4O3)]
 Deg. of freedom    27
 Full point group                 C1      NOp   1
 Largest Abelian subgroup         C1      NOp   1
 Largest concise Abelian subgroup C1      NOp   1
                         Standard orientation:                         
 ---------------------------------------------------------------------
 Center     Atomic      Atomic             Coordinates (Angstroms)
 Number     Number       Type             X           Y           Z
 ---------------------------------------------------------------------
      1          8           0        0.000015   -0.986835    0.000083
      2          8           0       -2.220513   -0.704023    0.041528
      3          8           0        2.220521   -0.703998   -0.041570
      4          6           0       -0.759315    1.247084   -0.099217
      5          6           0        0.759310    1.247075    0.099241
      6          6           0       -1.141147   -0.220441    0.003093
      7          6           0        1.141126   -0.220460   -0.003202
      8          1           0       -1.057595    1.600574   -1.093021
      9          1           0       -1.324551    1.819114    0.640587
     10          1           0        1.057548    1.600432    1.093103
     11          1           0        1.324574    1.819178   -0.640488
 ---------------------------------------------------------------------
 Rotational constants (GHZ):           5.9580273           2.3822916           1.7432115
 Standard basis: 6-311++G(d,p) (5D, 7F)
 There are   189 symmetry adapted cartesian basis functions of A   symmetry.
 There are   182 symmetry adapted basis functions of A   symmetry.
   182 basis functions,   288 primitive gaussians,   189 cartesian basis functions
    26 alpha electrons       26 beta electrons
       nuclear repulsion energy       295.2546786033 Hartrees.
 NAtoms=   11 NActive=   11 NUniq=   11 SFac= 1.00D+00 NAtFMM=   60 NAOKFM=F Big=F
 Integral buffers will be    131072 words long.
 Raffenetti 2 integral format.
 Two-electron integral symmetry is turned on.
 R6APFD:  NTU= -4 IXU= 1 FactS= 1.050
 Nuclear repulsion after empirical dispersion term =      295.2488907943 Hartrees.
 One-electron integrals computed using PRISM.
 NBasis=   182 RedAO= T EigKep=  1.43D-05  NBF=   182
 NBsUse=   182 1.00D-06 EigRej= -1.00D+00 NBFU=   182
 Initial guess from the checkpoint file:  "SCIC0159.chk"
 B after Tr=    -0.000000    0.000000    0.000000
         Rot=    1.000000   -0.000003    0.000078   -0.000000 Ang=  -0.01 deg.
 ExpMin= 3.60D-02 ExpMax= 8.59D+03 ExpMxC= 1.30D+03 IAcc=3 IRadAn=         5 AccDes= 0.00D+00
 Harris functional with IExCor= 1009 and IRadAn=       5 diagonalized for initial guess.
 HarFok:  IExCor= 1009 AccDes= 0.00D+00 IRadAn=         5 IDoV= 1 UseB2=F ITyADJ=14
 ICtDFT=  3500011 ScaDFX=  1.000000  1.000000  1.000000  1.000000
 FoFCou: FMM=F IPFlag=           0 FMFlag=      100000 FMFlg1=           0
         NFxFlg=           0 DoJE=T BraDBF=F KetDBF=T FulRan=T
         wScrn=  0.000000 ICntrl=       500 IOpCl=  0 I1Cent=   200000004 NGrid=           0
         NMat0=    1 NMatS0=      1 NMatT0=    0 NMatD0=    1 NMtDS0=    0 NMtDT0=    0
 Petite list used in FoFCou.
 Keep R1 ints in memory in canonical form, NReq=154968096.
 Requested convergence on RMS density matrix=1.00D-08 within  32 cycles.
 Requested convergence on MAX density matrix=1.00D-06.
 Requested convergence on             energy=1.00D-06.
 No special actions if energy rises.
 SCF Done:  E(RM08HX) =  -380.500697763     A.U. after   11 cycles
            NFock= 11  Conv=0.75D-08     -V/T= 2.0036
 QCSCF skips out because SCF is already converged.
 R6APFD:  NTU= -4 IXU= 1 FactS= 1.050
 Calling FoFJK, ICntrl=      2127 FMM=F ISym2X=0 I1Cent= 0 IOpClX= 0 NMat=1 NMatS=1 NMatT=0.
 ***** Axes restored to original set *****
 -------------------------------------------------------------------
 Center     Atomic                   Forces (Hartrees/Bohr)
 Number     Number              X              Y              Z
 -------------------------------------------------------------------
      1        8          -0.000017240    0.002876894    0.000016586
      2        8          -0.001020239    0.000447000   -0.001286876
      3        8           0.001018599    0.000451041    0.001304131
      4        6           0.003656563   -0.000267668   -0.001216662
      5        6          -0.003658201   -0.000260527    0.001235899
      6        6          -0.000405877   -0.001430802    0.003473904
      7        6           0.000426849   -0.001451346   -0.003525466
      8        1          -0.000380200    0.000283068   -0.000010408
      9        1           0.000014366   -0.000465023   -0.000122911
     10        1           0.000383314    0.000284568    0.000010964
     11        1          -0.000017932   -0.000467206    0.000120837
 -------------------------------------------------------------------
 Cartesian Forces:  Max     0.003658201 RMS     0.001496772

 GradGradGradGradGradGradGradGradGradGradGradGradGradGradGradGradGradGrad
 Berny optimization.
 Using GEDIIS/GDIIS optimizer.
 FormGI is forming the generalized inverse of G from B-inverse, IUseBI=4.
 Internal  Forces:  Max     0.002922544 RMS     0.000700700
 Search for a local minimum.
 Step number   3 out of a maximum of   65
 All quantities printed in internal units (Hartrees-Bohrs-Radians)
 Mixed Optimization -- En-DIIS/RFO-DIIS
 Update second derivatives using D2CorX and points    1    2    3
 DE= -3.68D-04 DEPred=-4.17D-04 R= 8.84D-01
 TightC=F SS=  1.41D+00  RLast= 8.99D-02 DXNew= 8.4853D-01 2.6977D-01
 Trust test= 8.84D-01 RLast= 8.99D-02 DXMaxT set to 5.05D-01
 ITU=  1  1  0
 Use linear search instead of GDIIS.
     Eigenvalues ---    0.00796   0.01117   0.01509   0.01610   0.04441
     Eigenvalues ---    0.04469   0.05522   0.05909   0.08234   0.08685
     Eigenvalues ---    0.09254   0.10821   0.22629   0.22748   0.24983
     Eigenvalues ---    0.27655   0.28767   0.31611   0.33491   0.34363
     Eigenvalues ---    0.34370   0.34482   0.34540   0.44441   0.51412
     Eigenvalues ---    0.90468   0.94853
 RFO step:  Lambda=-3.05448984D-04 EMin= 7.95574146D-03
 Quartic linear search produced a step of -0.09930.
 Iteration  1 RMS(Cart)=  0.00820307 RMS(Int)=  0.00016534
 Iteration  2 RMS(Cart)=  0.00012334 RMS(Int)=  0.00012964
 Iteration  3 RMS(Cart)=  0.00000001 RMS(Int)=  0.00012964
 Variable       Old X    -DE/DX   Delta X   Delta X   Delta X     New X
                                 (Linear)    (Quad)   (Total)
    R1        2.59768   0.00169  -0.00147   0.00964   0.00822   2.60590
    R2        2.59758   0.00171  -0.00147   0.00971   0.00829   2.60587
    R3        2.23624   0.00115   0.00124  -0.00467  -0.00343   2.23281
    R4        2.23625   0.00115   0.00124  -0.00468  -0.00344   2.23281
    R5        2.89419  -0.00292   0.00121  -0.01381  -0.01266   2.88153
    R6        2.87207   0.00044  -0.00103   0.00587   0.00482   2.87689
    R7        2.07145   0.00000  -0.00015   0.00070   0.00055   2.07200
    R8        2.06493   0.00032   0.00003   0.00071   0.00074   2.06567
    R9        2.87210   0.00044  -0.00102   0.00582   0.00478   2.87688
   R10        2.07144   0.00000  -0.00015   0.00070   0.00055   2.07199
   R11        2.06493   0.00032   0.00002   0.00072   0.00074   2.06568
    A1        1.95878  -0.00144  -0.00098   0.00115   0.00038   1.95916
    A2        1.81356   0.00065  -0.00074   0.00672   0.00595   1.81951
    A3        1.96850   0.00023  -0.00009   0.00218   0.00211   1.97061
    A4        2.00997  -0.00042  -0.00082   0.00222   0.00138   2.01135
    A5        1.87974  -0.00065  -0.00014  -0.00653  -0.00668   1.87306
    A6        1.90704   0.00015   0.00091   0.00078   0.00170   1.90874
    A7        1.87994   0.00002   0.00089  -0.00561  -0.00472   1.87522
    A8        1.81355   0.00065  -0.00075   0.00675   0.00599   1.81953
    A9        1.96846   0.00023  -0.00009   0.00220   0.00213   1.97059
   A10        2.01000  -0.00042  -0.00081   0.00216   0.00132   2.01132
   A11        1.87971  -0.00065  -0.00015  -0.00651  -0.00667   1.87304
   A12        1.90705   0.00015   0.00091   0.00080   0.00172   1.90877
   A13        1.87997   0.00002   0.00089  -0.00562  -0.00473   1.87524
   A14        2.12873  -0.00011  -0.00082   0.00319   0.00198   2.13071
   A15        1.90670   0.00014   0.00137  -0.00427  -0.00319   1.90352
   A16        2.24711   0.00001  -0.00049   0.00267   0.00178   2.24889
   A17        2.12878  -0.00011  -0.00081   0.00318   0.00194   2.13072
   A18        1.90671   0.00013   0.00137  -0.00426  -0.00318   1.90353
   A19        2.24705   0.00002  -0.00050   0.00272   0.00181   2.24886
    D1       -3.10635   0.00071   0.00257   0.03551   0.03810  -3.06825
    D2        0.07044  -0.00025  -0.00028  -0.00856  -0.00878   0.06166
    D3       -3.10625   0.00071   0.00260   0.03575   0.03837  -3.06787
    D4        0.07090  -0.00026  -0.00030  -0.00934  -0.00958   0.06133
    D5        0.20505  -0.00048  -0.00123  -0.02354  -0.02482   0.18024
    D6       -1.82550  -0.00021  -0.00058  -0.02087  -0.02147  -1.84698
    D7        2.29013  -0.00008  -0.00106  -0.01678  -0.01786   2.27227
    D8       -1.82556  -0.00021  -0.00059  -0.02082  -0.02143  -1.84699
    D9        2.42707   0.00007   0.00007  -0.01815  -0.01809   2.40898
   D10        0.25951   0.00019  -0.00042  -0.01406  -0.01448   0.24504
   D11        2.29011  -0.00009  -0.00106  -0.01679  -0.01787   2.27224
   D12        0.25955   0.00019  -0.00041  -0.01412  -0.01453   0.24502
   D13       -1.90801   0.00031  -0.00089  -0.01002  -0.01091  -1.91892
   D14       -0.17697   0.00042   0.00089   0.02082   0.02170  -0.15526
   D15        3.00292  -0.00062  -0.00221  -0.02711  -0.02930   2.97362
   D16        1.91497   0.00071   0.00035   0.02370   0.02401   1.93898
   D17       -1.18833  -0.00033  -0.00276  -0.02423  -0.02699  -1.21532
   D18       -2.33082   0.00046   0.00182   0.01387   0.01566  -2.31516
   D19        0.84907  -0.00058  -0.00128  -0.03407  -0.03534   0.81373
   D20       -0.17723   0.00042   0.00090   0.02127   0.02216  -0.15507
   D21        3.00304  -0.00063  -0.00225  -0.02777  -0.03000   2.97304
   D22        1.91465   0.00072   0.00035   0.02419   0.02451   1.93916
   D23       -1.18827  -0.00034  -0.00280  -0.02485  -0.02765  -1.21592
   D24       -2.33111   0.00046   0.00183   0.01436   0.01616  -2.31496
   D25        0.84915  -0.00059  -0.00133  -0.03468  -0.03600   0.81315
         Item               Value     Threshold  Converged?
 Maximum Force            0.002923     0.000450     NO 
 RMS     Force            0.000701     0.000300     NO 
 Maximum Displacement     0.034068     0.001800     NO 
 RMS     Displacement     0.008190     0.001200     NO 
 Predicted change in Energy=-1.594541D-04
 GradGradGradGradGradGradGradGradGradGradGradGradGradGradGradGradGradGrad

                          Input orientation:                          
 ---------------------------------------------------------------------
 Center     Atomic      Atomic             Coordinates (Angstroms)
 Number     Number       Type             X           Y           Z
 ---------------------------------------------------------------------
      1          8           0        0.000048    0.949249   -0.000019
      2          8           0       -2.223360    0.659949   -0.033825
      3          8           0        2.223412    0.659698    0.034087
      4          6           0       -0.755643   -1.288870    0.101840
      5          6           0        0.755514   -1.288931   -0.101964
      6          6           0       -1.144727    0.180694    0.020274
      7          6           0        1.144733    0.180597   -0.020508
      8          1           0       -1.052585   -1.650573    1.093408
      9          1           0       -1.325843   -1.856357   -0.638232
     10          1           0        1.052409   -1.650717   -1.093512
     11          1           0        1.325644   -1.856440    0.638152
 ---------------------------------------------------------------------
                    Distance matrix (angstroms):
                    1          2          3          4          5
     1  O    0.000000
     2  O    2.242405   0.000000
     3  O    2.242399   4.447291   0.000000
     4  C    2.364449   2.443459   3.560376   0.000000
     5  C    2.364438   3.560402   2.443438   1.524838   0.000000
     6  C    1.378984   1.181550   3.402058   1.522385   2.405339
     7  C    1.378966   3.402059   1.181554   2.405354   1.522379
     8  H    3.010431   2.824868   4.146285   1.096453   2.197480
     9  H    3.168079   2.739095   4.402245   1.093104   2.222971
    10  H    3.010483   4.146417   2.825021   2.197465   1.096450
    11  H    3.168021   4.402181   2.738948   2.222954   1.093108
                    6          7          8          9         10
     6  C    0.000000
     7  C    2.289823   0.000000
     8  H    2.124535   3.069560   0.000000
     9  H    2.148490   3.261059   1.765104   0.000000
    10  H    3.069526   2.124516   3.035394   2.430154   0.000000
    11  H    3.261046   2.148507   2.430147   2.942709   1.765117
                   11
    11  H    0.000000
 Stoichiometry    C4H4O3
 Framework group  C1[X(C4H4O3)]
 Deg. of freedom    27
 Full point group                 C1      NOp   1
 Largest Abelian subgroup         C1      NOp   1
 Largest concise Abelian subgroup C1      NOp   1
                         Standard orientation:                         
 ---------------------------------------------------------------------
 Center     Atomic      Atomic             Coordinates (Angstroms)
 Number     Number       Type             X           Y           Z
 ---------------------------------------------------------------------
      1          8           0       -0.000001   -0.990825    0.000064
      2          8           0       -2.223159   -0.701399    0.046796
      3          8           0        2.223143   -0.701401   -0.046998
      4          6           0       -0.756148    1.247330   -0.097514
      5          6           0        0.756170    1.247317    0.097491
      6          6           0       -1.144832   -0.222208   -0.013606
      7          6           0        1.144826   -0.222236    0.013849
      8          1           0       -1.058836    1.608998   -1.087355
      9          1           0       -1.321998    1.814888    0.645835
     10          1           0        1.058852    1.609139    1.087274
     11          1           0        1.322014    1.814756   -0.645961
 ---------------------------------------------------------------------
 Rotational constants (GHZ):           5.9534723           2.3772035           1.7400970
 Standard basis: 6-311++G(d,p) (5D, 7F)
 There are   189 symmetry adapted cartesian basis functions of A   symmetry.
 There are   182 symmetry adapted basis functions of A   symmetry.
   182 basis functions,   288 primitive gaussians,   189 cartesian basis functions
    26 alpha electrons       26 beta electrons
       nuclear repulsion energy       295.0491021211 Hartrees.
 NAtoms=   11 NActive=   11 NUniq=   11 SFac= 1.00D+00 NAtFMM=   60 NAOKFM=F Big=F
 Integral buffers will be    131072 words long.
 Raffenetti 2 integral format.
 Two-electron integral symmetry is turned on.
 R6APFD:  NTU= -4 IXU= 1 FactS= 1.050
 Nuclear repulsion after empirical dispersion term =      295.0433018535 Hartrees.
 One-electron integrals computed using PRISM.
 NBasis=   182 RedAO= T EigKep=  1.37D-05  NBF=   182
 NBsUse=   182 1.00D-06 EigRej= -1.00D+00 NBFU=   182
 Initial guess from the checkpoint file:  "SCIC0159.chk"
 B after Tr=    -0.000000   -0.000000   -0.000000
         Rot=    1.000000    0.000009   -0.000006    0.000003 Ang=   0.00 deg.
 ExpMin= 3.60D-02 ExpMax= 8.59D+03 ExpMxC= 1.30D+03 IAcc=3 IRadAn=         5 AccDes= 0.00D+00
 Harris functional with IExCor= 1009 and IRadAn=       5 diagonalized for initial guess.
 HarFok:  IExCor= 1009 AccDes= 0.00D+00 IRadAn=         5 IDoV= 1 UseB2=F ITyADJ=14
 ICtDFT=  3500011 ScaDFX=  1.000000  1.000000  1.000000  1.000000
 FoFCou: FMM=F IPFlag=           0 FMFlag=      100000 FMFlg1=           0
         NFxFlg=           0 DoJE=T BraDBF=F KetDBF=T FulRan=T
         wScrn=  0.000000 ICntrl=       500 IOpCl=  0 I1Cent=   200000004 NGrid=           0
         NMat0=    1 NMatS0=      1 NMatT0=    0 NMatD0=    1 NMtDS0=    0 NMtDT0=    0
 Petite list used in FoFCou.
 Keep R1 ints in memory in canonical form, NReq=154968096.
 Requested convergence on RMS density matrix=1.00D-08 within  32 cycles.
 Requested convergence on MAX density matrix=1.00D-06.
 Requested convergence on             energy=1.00D-06.
 No special actions if energy rises.
 SCF Done:  E(RM08HX) =  -380.500669827     A.U. after   11 cycles
            NFock= 11  Conv=0.58D-08     -V/T= 2.0036
 QCSCF skips out because SCF is already converged.
 R6APFD:  NTU= -4 IXU= 1 FactS= 1.050
 Calling FoFJK, ICntrl=      2127 FMM=F ISym2X=0 I1Cent= 0 IOpClX= 0 NMat=1 NMatS=1 NMatT=0.
 ***** Axes restored to original set *****
 -------------------------------------------------------------------
 Center     Atomic                   Forces (Hartrees/Bohr)
 Number     Number              X              Y              Z
 -------------------------------------------------------------------
      1        8          -0.000005377    0.001111161   -0.000027097
      2        8          -0.003033917    0.001727570    0.001487168
      3        8           0.003034522    0.001731660   -0.001524727
      4        6          -0.000454487    0.000760691    0.002016448
      5        6           0.000452399    0.000750576   -0.002049005
      6        6           0.005296136   -0.003014194   -0.004130851
      7        6          -0.005292459   -0.003023049    0.004232443
      8        1           0.000040946   -0.000318951   -0.000000788
      9        1          -0.000028409    0.000297245   -0.000258206
     10        1          -0.000040872   -0.000328104   -0.000000398
     11        1           0.000031517    0.000305394    0.000255014
 -------------------------------------------------------------------
 Cartesian Forces:  Max     0.005296136 RMS     0.002130404

 GradGradGradGradGradGradGradGradGradGradGradGradGradGradGradGradGradGrad
 Berny optimization.
 Using GEDIIS/GDIIS optimizer.
 FormGI is forming the generalized inverse of G from B-inverse, IUseBI=4.
 Internal  Forces:  Max     0.003402198 RMS     0.000861293
 Search for a local minimum.
 Step number   4 out of a maximum of   65
 All quantities printed in internal units (Hartrees-Bohrs-Radians)
 Mixed Optimization -- En-DIIS/RFO-DIIS
 Swapping is turned off.
 Update second derivatives using D2CorX and points    1    2    3    4
 DE=  2.79D-05 DEPred=-1.59D-04 R=-1.75D-01
 Trust test=-1.75D-01 RLast= 1.23D-01 DXMaxT set to 2.52D-01
 ITU= -1  1  1  0
     Eigenvalues ---    0.00800   0.01116   0.01610   0.02422   0.04427
     Eigenvalues ---    0.05430   0.05502   0.05871   0.07577   0.08741
     Eigenvalues ---    0.09558   0.10876   0.21407   0.22630   0.24998
     Eigenvalues ---    0.27098   0.29765   0.31632   0.32476   0.34365
     Eigenvalues ---    0.34371   0.34482   0.34542   0.43852   0.51421
     Eigenvalues ---    0.86999   0.94853
 En-DIIS/RFO-DIIS/Sim-DIIS IScMMF=       -3 using points:     4    3
 RFO step:  Lambda=-2.30395376D-04.
 DidBck=T Rises=T En-DIIS coefs:    0.47958    0.52042
 Iteration  1 RMS(Cart)=  0.00428698 RMS(Int)=  0.00004583
 Iteration  2 RMS(Cart)=  0.00004061 RMS(Int)=  0.00002772
 Iteration  3 RMS(Cart)=  0.00000000 RMS(Int)=  0.00002772
 Variable       Old X    -DE/DX   Delta X   Delta X   Delta X     New X
                                 (Linear)    (Quad)   (Total)
    R1        2.60590  -0.00090  -0.00428   0.00114  -0.00315   2.60276
    R2        2.60587  -0.00090  -0.00431   0.00117  -0.00315   2.60271
    R3        2.23281   0.00340   0.00179   0.00208   0.00386   2.23667
    R4        2.23281   0.00340   0.00179   0.00208   0.00387   2.23668
    R5        2.88153  -0.00035   0.00659  -0.00552   0.00108   2.88261
    R6        2.87689  -0.00084  -0.00251  -0.00039  -0.00289   2.87400
    R7        2.07200   0.00009  -0.00029   0.00013  -0.00016   2.07184
    R8        2.06567   0.00003  -0.00039   0.00049   0.00011   2.06578
    R9        2.87688  -0.00083  -0.00249  -0.00039  -0.00288   2.87400
   R10        2.07199   0.00010  -0.00028   0.00013  -0.00015   2.07184
   R11        2.06568   0.00003  -0.00039   0.00048   0.00010   2.06577
    A1        1.95916  -0.00126  -0.00020  -0.00426  -0.00450   1.95465
    A2        1.81951  -0.00050  -0.00310   0.00024  -0.00285   1.81667
    A3        1.97061   0.00003  -0.00110   0.00164   0.00054   1.97115
    A4        2.01135   0.00016  -0.00072  -0.00112  -0.00184   2.00952
    A5        1.87306   0.00056   0.00348  -0.00032   0.00316   1.87622
    A6        1.90874  -0.00020  -0.00088  -0.00016  -0.00104   1.90770
    A7        1.87522  -0.00003   0.00245  -0.00028   0.00217   1.87739
    A8        1.81953  -0.00050  -0.00312   0.00023  -0.00288   1.81666
    A9        1.97059   0.00002  -0.00111   0.00164   0.00053   1.97112
   A10        2.01132   0.00017  -0.00069  -0.00110  -0.00179   2.00953
   A11        1.87304   0.00057   0.00347  -0.00029   0.00318   1.87622
   A12        1.90877  -0.00021  -0.00089  -0.00017  -0.00107   1.90770
   A13        1.87524  -0.00003   0.00246  -0.00030   0.00217   1.87740
   A14        2.13071  -0.00084  -0.00103  -0.00142  -0.00236   2.12835
   A15        1.90352   0.00105   0.00166   0.00186   0.00358   1.90710
   A16        2.24889  -0.00020  -0.00092  -0.00042  -0.00125   2.24763
   A17        2.13072  -0.00084  -0.00101  -0.00143  -0.00236   2.12836
   A18        1.90353   0.00105   0.00165   0.00185   0.00357   1.90710
   A19        2.24886  -0.00019  -0.00094  -0.00040  -0.00125   2.24761
    D1       -3.06825  -0.00090  -0.01983  -0.00169  -0.02152  -3.08977
    D2        0.06166   0.00028   0.00457  -0.00002   0.00453   0.06619
    D3       -3.06787  -0.00091  -0.01997  -0.00191  -0.02188  -3.08975
    D4        0.06133   0.00030   0.00498   0.00018   0.00514   0.06647
    D5        0.18024   0.00066   0.01292   0.00030   0.01322   0.19345
    D6       -1.84698   0.00027   0.01118  -0.00030   0.01088  -1.83610
    D7        2.27227   0.00015   0.00929  -0.00037   0.00892   2.28119
    D8       -1.84699   0.00027   0.01115  -0.00027   0.01088  -1.83611
    D9        2.40898  -0.00011   0.00941  -0.00087   0.00855   2.41753
   D10        0.24504  -0.00024   0.00753  -0.00095   0.00659   0.25162
   D11        2.27224   0.00015   0.00930  -0.00036   0.00894   2.28118
   D12        0.24502  -0.00023   0.00756  -0.00095   0.00661   0.25163
   D13       -1.91892  -0.00036   0.00568  -0.00103   0.00465  -1.91427
   D14       -0.15526  -0.00069  -0.01129  -0.00041  -0.01171  -0.16697
   D15        2.97362   0.00060   0.01525   0.00140   0.01665   2.99027
   D16        1.93898  -0.00064  -0.01250   0.00145  -0.01104   1.92794
   D17       -1.21532   0.00065   0.01405   0.00326   0.01731  -1.19801
   D18       -2.31516  -0.00047  -0.00815   0.00086  -0.00729  -2.32244
   D19        0.81373   0.00081   0.01839   0.00267   0.02107   0.83479
   D20       -0.15507  -0.00070  -0.01153  -0.00052  -0.01206  -0.16713
   D21        2.97304   0.00062   0.01561   0.00174   0.01735   2.99039
   D22        1.93916  -0.00066  -0.01276   0.00135  -0.01141   1.92775
   D23       -1.21592   0.00067   0.01439   0.00361   0.01800  -1.19792
   D24       -2.31496  -0.00049  -0.00841   0.00075  -0.00766  -2.32262
   D25        0.81315   0.00083   0.01874   0.00301   0.02175   0.83490
         Item               Value     Threshold  Converged?
 Maximum Force            0.003402     0.000450     NO 
 RMS     Force            0.000861     0.000300     NO 
 Maximum Displacement     0.018078     0.001800     NO 
 RMS     Displacement     0.004292     0.001200     NO 
 Predicted change in Energy=-1.157338D-04
 GradGradGradGradGradGradGradGradGradGradGradGradGradGradGradGradGradGrad

                          Input orientation:                          
 ---------------------------------------------------------------------
 Center     Atomic      Atomic             Coordinates (Angstroms)
 Number     Number       Type             X           Y           Z
 ---------------------------------------------------------------------
      1          8           0        0.000051    0.949326   -0.000050
      2          8           0       -2.222250    0.660448   -0.030703
      3          8           0        2.222314    0.660219    0.030676
      4          6           0       -0.755864   -1.289109    0.102395
      5          6           0        0.755728   -1.289178   -0.102455
      6          6           0       -1.141743    0.179135    0.010991
      7          6           0        1.141745    0.179025   -0.010941
      8          1           0       -1.052513   -1.646739    1.095434
      9          1           0       -1.324692   -1.858944   -0.637014
     10          1           0        1.052314   -1.646757   -1.095532
     11          1           0        1.324509   -1.859126    0.636899
 ---------------------------------------------------------------------
                    Distance matrix (angstroms):
                    1          2          3          4          5
     1  O    0.000000
     2  O    2.241207   0.000000
     3  O    2.241200   4.444987   0.000000
     4  C    2.364845   2.443108   3.560135   0.000000
     5  C    2.364832   3.560132   2.443101   1.525409   0.000000
     6  C    1.377320   1.183595   3.398339   1.520854   2.401917
     7  C    1.377297   3.398326   1.183600   2.401912   1.520856
     8  H    3.007911   2.821273   4.144907   1.096370   2.198300
     9  H    3.169707   2.742364   4.401504   1.093161   2.222281
    10  H    3.007820   4.144855   2.821238   2.198283   1.096371
    11  H    3.169747   4.401528   2.742382   2.222289   1.093159
                    6          7          8          9         10
     6  C    0.000000
     7  C    2.283593   0.000000
     8  H    2.125510   3.061413   0.000000
     9  H    2.146425   3.260152   1.766490   0.000000
    10  H    3.061398   2.125515   3.038195   2.430106   0.000000
    11  H    3.260164   2.146430   2.430144   2.939578   1.766496
                   11
    11  H    0.000000
 Stoichiometry    C4H4O3
 Framework group  C1[X(C4H4O3)]
 Deg. of freedom    27
 Full point group                 C1      NOp   1
 Largest Abelian subgroup         C1      NOp   1
 Largest concise Abelian subgroup C1      NOp   1
                         Standard orientation:                         
 ---------------------------------------------------------------------
 Center     Atomic      Atomic             Coordinates (Angstroms)
 Number     Number       Type             X           Y           Z
 ---------------------------------------------------------------------
      1          8           0        0.000008   -0.991102    0.000038
      2          8           0       -2.222062   -0.702116    0.043659
      3          8           0        2.222067   -0.702105   -0.043660
      4          6           0       -0.756382    1.247369   -0.098005
      5          6           0        0.756379    1.247364    0.098019
      6          6           0       -1.141793   -0.220855   -0.004343
      7          6           0        1.141783   -0.220858    0.004261
      8          1           0       -1.058805    1.605009   -1.089298
      9          1           0       -1.320857    1.817235    0.644708
     10          1           0        1.058773    1.604934    1.089347
     11          1           0        1.320864    1.817282   -0.644644
 ---------------------------------------------------------------------
 Rotational constants (GHZ):           5.9524214           2.3808438           1.7418908
 Standard basis: 6-311++G(d,p) (5D, 7F)
 There are   189 symmetry adapted cartesian basis functions of A   symmetry.
 There are   182 symmetry adapted basis functions of A   symmetry.
   182 basis functions,   288 primitive gaussians,   189 cartesian basis functions
    26 alpha electrons       26 beta electrons
       nuclear repulsion energy       295.1311799394 Hartrees.
 NAtoms=   11 NActive=   11 NUniq=   11 SFac= 1.00D+00 NAtFMM=   60 NAOKFM=F Big=F
 Integral buffers will be    131072 words long.
 Raffenetti 2 integral format.
 Two-electron integral symmetry is turned on.
 R6APFD:  NTU= -4 IXU= 1 FactS= 1.050
 Nuclear repulsion after empirical dispersion term =      295.1253828435 Hartrees.
 One-electron integrals computed using PRISM.
 NBasis=   182 RedAO= T EigKep=  1.39D-05  NBF=   182
 NBsUse=   182 1.00D-06 EigRej= -1.00D+00 NBFU=   182
 Initial guess from the checkpoint file:  "SCIC0159.chk"
 B after Tr=     0.000000   -0.000000   -0.000000
         Rot=    1.000000   -0.000007   -0.000019   -0.000003 Ang=  -0.00 deg.
 Keep R1 ints in memory in canonical form, NReq=154968096.
 Requested convergence on RMS density matrix=1.00D-08 within  32 cycles.
 Requested convergence on MAX density matrix=1.00D-06.
 Requested convergence on             energy=1.00D-06.
 No special actions if energy rises.
 SCF Done:  E(RM08HX) =  -380.500787608     A.U. after   11 cycles
            NFock= 11  Conv=0.36D-08     -V/T= 2.0036
 QCSCF skips out because SCF is already converged.
 R6APFD:  NTU= -4 IXU= 1 FactS= 1.050
 Calling FoFJK, ICntrl=      2127 FMM=F ISym2X=0 I1Cent= 0 IOpClX= 0 NMat=1 NMatS=1 NMatT=0.
 ***** Axes restored to original set *****
 -------------------------------------------------------------------
 Center     Atomic                   Forces (Hartrees/Bohr)
 Number     Number              X              Y              Z
 -------------------------------------------------------------------
      1        8          -0.000007308    0.000237429    0.000011774
      2        8          -0.000238727    0.000118290    0.000040654
      3        8           0.000234051    0.000117240   -0.000027639
      4        6           0.000290547    0.000210078    0.000103224
      5        6          -0.000293649    0.000211302   -0.000090781
      6        6           0.000188087   -0.000501595   -0.000036352
      7        6          -0.000174256   -0.000504951   -0.000002087
      8        1          -0.000130359    0.000023006   -0.000035813
      9        1          -0.000077700    0.000032870   -0.000035769
     10        1           0.000132580    0.000026045    0.000036639
     11        1           0.000076734    0.000030285    0.000036151
 -------------------------------------------------------------------
 Cartesian Forces:  Max     0.000504951 RMS     0.000183019

 GradGradGradGradGradGradGradGradGradGradGradGradGradGradGradGradGradGrad
 Berny optimization.
 Using GEDIIS/GDIIS optimizer.
 FormGI is forming the generalized inverse of G from B-inverse, IUseBI=4.
 Internal  Forces:  Max     0.000264553 RMS     0.000086046
 Search for a local minimum.
 Step number   5 out of a maximum of   65
 All quantities printed in internal units (Hartrees-Bohrs-Radians)
 Mixed Optimization -- En-DIIS/RFO-DIIS
 Swapping is turned off.
 Update second derivatives using D2CorX and points    1    2    3    4    5
 DE= -1.18D-04 DEPred=-1.16D-04 R= 1.02D+00
 TightC=F SS=  1.41D+00  RLast= 6.85D-02 DXNew= 4.2426D-01 2.0544D-01
 Trust test= 1.02D+00 RLast= 6.85D-02 DXMaxT set to 2.52D-01
 ITU=  1 -1  1  1  0
     Eigenvalues ---    0.00800   0.01115   0.01607   0.02481   0.04451
     Eigenvalues ---    0.05390   0.05507   0.06039   0.08325   0.08716
     Eigenvalues ---    0.09740   0.10851   0.22627   0.23351   0.24997
     Eigenvalues ---    0.26253   0.30167   0.31617   0.32745   0.34367
     Eigenvalues ---    0.34376   0.34481   0.34534   0.44938   0.51405
     Eigenvalues ---    0.88090   0.94853
 En-DIIS/RFO-DIIS/Sim-DIIS IScMMF=       -3 using points:     5    4    3
 RFO step:  Lambda=-2.18033552D-06.
 DidBck=F Rises=F RFO-DIIS coefs:    1.24365   -0.10959   -0.13407
 Iteration  1 RMS(Cart)=  0.00133899 RMS(Int)=  0.00000822
 Iteration  2 RMS(Cart)=  0.00000102 RMS(Int)=  0.00000817
 Iteration  3 RMS(Cart)=  0.00000000 RMS(Int)=  0.00000817
 Variable       Old X    -DE/DX   Delta X   Delta X   Delta X     New X
                                 (Linear)    (Quad)   (Total)
    R1        2.60276   0.00012   0.00034   0.00004   0.00038   2.60313
    R2        2.60271   0.00013   0.00034   0.00005   0.00040   2.60311
    R3        2.23667   0.00026   0.00048  -0.00017   0.00031   2.23698
    R4        2.23668   0.00026   0.00048  -0.00017   0.00031   2.23699
    R5        2.88261  -0.00009  -0.00143   0.00091  -0.00052   2.88208
    R6        2.87400  -0.00026  -0.00006  -0.00087  -0.00093   2.87307
    R7        2.07184  -0.00000   0.00004  -0.00005  -0.00001   2.07183
[...]
    D5        0.15983   0.00000   0.00000   0.00060   0.00060   0.16044
    D6       -1.87508   0.00000   0.00000   0.00071   0.00071  -1.87437
    D7        2.24288  -0.00000   0.00000   0.00046   0.00046   2.24334
    D8       -1.87506   0.00001   0.00000   0.00069   0.00069  -1.87437
    D9        2.37321   0.00000   0.00000   0.00079   0.00079   2.37400
   D10        0.20799  -0.00000   0.00000   0.00054   0.00054   0.20853
   D11        2.24290  -0.00000   0.00000   0.00044   0.00044   2.24334
   D12        0.20798  -0.00000   0.00000   0.00054   0.00054   0.20853
   D13       -1.95724  -0.00001   0.00000   0.00029   0.00029  -1.95695
   D14       -0.13809  -0.00000   0.00000  -0.00044  -0.00044  -0.13853
   D15        3.01759  -0.00001   0.00000  -0.00055  -0.00055   3.01704
   D16        1.96416  -0.00000   0.00000  -0.00051  -0.00051   1.96365
   D17       -1.16334  -0.00001   0.00000  -0.00062  -0.00062  -1.16396
   D18       -2.29000   0.00001   0.00000  -0.00032  -0.00032  -2.29031
   D19        0.86568   0.00000   0.00000  -0.00042  -0.00042   0.86526
   D20       -0.13792  -0.00001   0.00000  -0.00061  -0.00061  -0.13853
   D21        3.01748   0.00000   0.00000  -0.00044  -0.00044   3.01704
   D22        1.96436  -0.00001   0.00000  -0.00072  -0.00072   1.96365
   D23       -1.16342  -0.00000   0.00000  -0.00054  -0.00054  -1.16396
   D24       -2.28981   0.00000   0.00000  -0.00051  -0.00051  -2.29031
   D25        0.86559   0.00001   0.00000  -0.00033  -0.00033   0.86526
         Item               Value     Threshold  Converged?
 Maximum Force            0.000048     0.000450     YES
 RMS     Force            0.000011     0.000300     YES
 Maximum Displacement     0.001055     0.001800     YES
 RMS     Displacement     0.000343     0.001200     YES
 Predicted change in Energy=-2.160016D-08
 Optimization completed.
    -- Stationary point found.
                           ----------------------------
                           !   Optimized Parameters   !
                           ! (Angstroms and Degrees)  !
 --------------------------                            --------------------------
 ! Name  Definition              Value          Derivative Info.                !
 --------------------------------------------------------------------------------
 ! R1    R(1,6)                  1.3773         -DE/DX =    0.0                 !
 ! R2    R(1,7)                  1.3773         -DE/DX =    0.0                 !
 ! R3    R(2,6)                  1.1838         -DE/DX =    0.0                 !
 ! R4    R(3,7)                  1.1838         -DE/DX =    0.0                 !
 ! R5    R(4,5)                  1.5251         -DE/DX =    0.0                 !
 ! R6    R(4,6)                  1.5204         -DE/DX =    0.0                 !
 ! R7    R(4,8)                  1.0961         -DE/DX =    0.0                 !
 ! R8    R(4,9)                  1.0935         -DE/DX =    0.0                 !
 ! R9    R(5,7)                  1.5204         -DE/DX =    0.0                 !
 ! R10   R(5,10)                 1.0961         -DE/DX =    0.0                 !
 ! R11   R(5,11)                 1.0935         -DE/DX =    0.0                 !
 ! A1    A(6,1,7)              111.9966         -DE/DX =    0.0                 !
 ! A2    A(5,4,6)              104.2102         -DE/DX =    0.0                 !
 ! A3    A(5,4,8)              113.2162         -DE/DX =    0.0                 !
 ! A4    A(5,4,9)              115.0045         -DE/DX =    0.0                 !
 ! A5    A(6,4,8)              107.5787         -DE/DX =    0.0                 !
 ! A6    A(6,4,9)              109.0784         -DE/DX =    0.0                 !
 ! A7    A(8,4,9)              107.447          -DE/DX =    0.0                 !
 ! A8    A(4,5,7)              104.2105         -DE/DX =    0.0                 !
 ! A9    A(4,5,10)             113.2176         -DE/DX =    0.0                 !
 ! A10   A(4,5,11)             115.0035         -DE/DX =    0.0                 !
 ! A11   A(7,5,10)             107.5788         -DE/DX =    0.0                 !
 ! A12   A(7,5,11)             109.0779         -DE/DX =    0.0                 !
 ! A13   A(10,5,11)            107.4466         -DE/DX =    0.0                 !
 ! A14   A(1,6,2)              121.9272         -DE/DX =    0.0                 !
 ! A15   A(1,6,4)              109.3502         -DE/DX =    0.0                 !
 ! A16   A(2,6,4)              128.7177         -DE/DX =    0.0                 !
 ! A17   A(1,7,3)              121.9264         -DE/DX =    0.0                 !
 ! A18   A(1,7,5)              109.3499         -DE/DX =    0.0                 !
 ! A19   A(3,7,5)              128.719          -DE/DX =    0.0                 !
 ! D1    D(7,1,6,2)           -177.5936         -DE/DX =    0.0                 !
 ! D2    D(7,1,6,4)              3.1483         -DE/DX =    0.0                 !
 ! D3    D(6,1,7,3)           -177.5957         -DE/DX =    0.0                 !
 ! D4    D(6,1,7,5)              3.1316         -DE/DX =    0.0                 !
 ! D5    D(6,4,5,7)              9.1577         -DE/DX =    0.0                 !
 ! D6    D(6,4,5,10)          -107.4342         -DE/DX =    0.0                 !
 ! D7    D(6,4,5,11)           128.5076         -DE/DX =    0.0                 !
 ! D8    D(8,4,5,7)           -107.4332         -DE/DX =    0.0                 !
 ! D9    D(8,4,5,10)           135.9749         -DE/DX =    0.0                 !
 ! D10   D(8,4,5,11)            11.9167         -DE/DX =    0.0                 !
 ! D11   D(9,4,5,7)            128.5085         -DE/DX =    0.0                 !
 ! D12   D(9,4,5,10)            11.9166         -DE/DX =    0.0                 !
 ! D13   D(9,4,5,11)          -112.1416         -DE/DX =    0.0                 !
 ! D14   D(5,4,6,1)             -7.9118         -DE/DX =    0.0                 !
 ! D15   D(5,4,6,2)            172.8952         -DE/DX =    0.0                 !
 ! D16   D(8,4,6,1)            112.5383         -DE/DX =    0.0                 !
 ! D17   D(8,4,6,2)            -66.6547         -DE/DX =    0.0                 !
 ! D18   D(9,4,6,1)           -131.2071         -DE/DX =    0.0                 !
 ! D19   D(9,4,6,2)             49.5999         -DE/DX =    0.0                 !
 ! D20   D(4,5,7,1)             -7.9022         -DE/DX =    0.0                 !
 ! D21   D(4,5,7,3)            172.8889         -DE/DX =    0.0                 !
 ! D22   D(10,5,7,1)           112.5498         -DE/DX =    0.0                 !
 ! D23   D(10,5,7,3)           -66.6591         -DE/DX =    0.0                 !
 ! D24   D(11,5,7,1)          -131.1962         -DE/DX =    0.0                 !
 ! D25   D(11,5,7,3)            49.5949         -DE/DX =    0.0                 !
 --------------------------------------------------------------------------------
 GradGradGradGradGradGradGradGradGradGradGradGradGradGradGradGradGradGrad


 ----------------------------------------------------------------------

 Electric dipole moment (input orientation):
 (Debye = 10**-18 statcoulomb cm , SI units = C m)
                  (au)            (Debye)         (10**-30 SI)
   Tot        0.188858D+01      0.480030D+01      0.160121D+02
   x         -0.255250D-04     -0.648780D-04     -0.216410D-03
   y         -0.188858D+01     -0.480030D+01     -0.160121D+02
   z         -0.116275D-03     -0.295540D-03     -0.985817D-03

 Dipole polarizability, Alpha (input orientation).
 (esu units = cm**3 , SI units = C**2 m**2 J**-1)
 Alpha(0;0):
               (au)            (10**-24 esu)      (10**-40 SI)
   iso        0.511928D+02      0.758598D+01      0.844055D+01
   aniso      0.271539D+02      0.402379D+01      0.447708D+01
   xx         0.673370D+02      0.997832D+01      0.111024D+02
   yx        -0.934634D-03     -0.138498D-03     -0.154100D-03
   yy         0.502061D+02      0.743978D+01      0.827787D+01
   zx        -0.308835D+00     -0.457647D-01     -0.509201D-01
   zy         0.650029D-03      0.963244D-04      0.107175D-03
   zz         0.360351D+02      0.533985D+01      0.594139D+01

 ----------------------------------------------------------------------

 Dipole orientation:
     8          0.00004559          0.00001794         -1.79570225
     8         -4.20001707          0.00651569         -1.25136599
     8          4.20008324         -0.00663947         -1.25106438
     6         -1.43006782          0.17793951          2.43602793
     6          1.42986655         -0.17783910          2.43615647
     6         -2.15729805          0.04420809         -0.34026703
     6          2.15732005         -0.04442206         -0.34009201
     1         -2.02251251          2.03015425          3.14938747
     1         -2.48871673         -1.25616812          3.48140014
     1          2.02230939         -2.02994578          3.14979200
     1          2.48840928          1.25642209          3.48143402

 Electric dipole moment (dipole orientation):
 (Debye = 10**-18 statcoulomb cm , SI units = C m)
                  (au)            (Debye)         (10**-30 SI)
   Tot        0.188858D+01      0.480030D+01      0.160121D+02
   x          0.000000D+00      0.000000D+00      0.000000D+00
   y          0.000000D+00      0.000000D+00      0.000000D+00
   z          0.188858D+01      0.480030D+01      0.160121D+02

 Dipole polarizability, Alpha (dipole orientation).
 (esu units = cm**3 , SI units = C**2 m**2 J**-1)
 Alpha(0;0):
               (au)            (10**-24 esu)      (10**-40 SI)
   iso        0.511928D+02      0.758598D+01      0.844055D+01
   aniso      0.271539D+02      0.402379D+01      0.447708D+01
   xx         0.673370D+02      0.997832D+01      0.111024D+02
   yx        -0.309258D+00     -0.458274D-01     -0.509898D-01
   yy         0.360351D+02      0.533985D+01      0.594139D+01
   zx         0.722120D-03      0.107007D-03      0.119061D-03
   zy         0.226604D-03      0.335792D-04      0.373619D-04
   zz         0.502061D+02      0.743978D+01      0.827787D+01

 ----------------------------------------------------------------------
 1\1\GINC-PITOMBA\Freq\RM08HX\6-311++G(d,p)\C4H4O3\VALTER\27-Sep-2025\0
 \\#N Geom=AllCheck Guess=TCheck SCRF=Check GenChk RM08HX/6-311++G(d,p)
  Freq\\SCIC0159\\0,1\O,0.0000369669,0.950244704,0.0000679997\O,-2.2225
 444142,0.6622241894,0.0034586868\O,2.2225973313,0.6620049317,-0.003442
 6556\C,-0.7567779964,-1.2890860345,0.0940719408\C,0.7566366388,-1.2891
 629151,-0.0941775431\C,-1.1415908454,0.1800755447,0.0233895691\C,1.141
 6073544,0.1799549579,-0.023480632\H,-1.0703045762,-1.666635749,1.07419
 42905\H,-1.3169880897,-1.8422188841,-0.6648667643\H,1.0701520351,-1.66
 67464698,-1.074289201\H,1.3167755952,-1.8423542752,0.6647743092\\Versi
 on=ES64L-G16RevB.01\State=1-A\HF=-380.5007938\RMSD=1.322e-09\RMSF=2.30
 9e-05\ZeroPoint=0.0796858\Thermal=0.0854482\Dipole=-0.0000255,-1.88858
 26,-0.0001163\DipoleDeriv=-2.0956302,0.000071,0.027209,0.0000471,-0.77
 88264,-0.0000289,0.0173441,-0.0000451,-0.1948715,-1.3554476,0.2726786,
 -0.0087241,0.3913348,-0.6721624,0.0131505,-0.0164966,0.0115704,-0.3595
 859,-1.3555099,-0.2726068,-0.008689,-0.3912781,-0.6720896,-0.0131417,-
 0.0165843,-0.0116137,-0.3595774,0.0229163,0.0379367,-0.0031952,0.06230
 68,-0.3119726,0.0312418,-0.0148737,0.0558354,0.0895913,0.0228949,-0.03
 79543,-0.0032069,-0.0623375,-0.3119705,-0.0312558,-0.0148447,-0.055772
 7,0.089591,2.3278713,-0.1625842,0.0025246,0.1750895,1.2244156,-0.05141
 72,0.0223385,-0.0490831,0.3243662,2.3278826,0.1624556,0.0024333,-0.175
 1733,1.2244174,0.0514575,0.0221969,0.0491283,0.3243799,0.0359123,0.018
 7406,0.0202114,0.0027653,0.0815429,0.0133766,0.0483879,0.0327076,0.002
 2389,0.016598,-0.0072663,-0.0243931,-0.0197913,0.0675491,-0.0239335,-0
 .0479324,-0.0559918,0.0408153,0.0359114,-0.0187278,0.0202171,-0.002752
 3,0.0815552,-0.013382,0.0483907,-0.032724,0.0022341,0.016601,0.0072569
 ,-0.0243873,0.0197891,0.0675414,0.0239327,-0.0479264,0.0559886,0.04081
 82\Polar=67.337048,-0.0009346,50.2061253,-0.3088355,0.00065,36.0351073
 \Quadrupole=-6.917961,2.3055314,4.6124296,0.0005045,-0.1579913,-0.0002
 532\PG=C01 [X(C4H4O3)]\NImag=0\\0.45912898,0.00002212,0.40528372,-0.00
 644985,0.00003490,0.04138657,-0.12762011,0.00372764,0.00078660,0.83106
 765,-0.01614357,0.03964334,-0.00046170,-0.32236003,0.23926008,0.000485
 15,-0.00038266,0.01711510,0.01369149,-0.00829562,0.03194066,-0.1276188
 5,-0.00371211,0.00078793,-0.01669488,-0.00204820,0.00010151,0.83114177
 ,0.01615791,0.03964159,0.00046634,0.00204953,0.00213826,-0.00011598,0.
 32231271,0.23919966,0.00048991,0.00038713,0.01711502,0.00010180,0.0001
 1650,-0.00121617,0.01375151,0.00832978,0.03194138,-0.01106206,-0.02364
 097,0.00240147,-0.01483472,0.04316294,-0.00340468,-0.00072592,0.000583
 64,0.00049427,0.52528019,-0.01243830,-0.03044397,0.00224062,0.02167946
 ,-0.01447571,0.00172025,-0.00418658,-0.00769459,-0.00127475,0.07505690
 ,0.49586428,0.00120190,-0.00042530,0.02301142,-0.00208684,0.00127400,0
 .02087168,-0.00011675,-0.00184638,0.00206260,0.01253935,0.00937947,0.5
 6889101,-0.01105896,0.02363511,0.00240386,-0.00072569,-0.00058444,0.00
 049433,-0.01483753,-0.04315853,-0.00340751,-0.20098863,0.00377102,0.01
 574210,0.52526044,0.01243275,-0.03043862,-0.00224248,0.00418610,-0.007
 69527,0.00127378,-0.02167576,-0.01446445,-0.00171796,-0.00375826,-0.07
 607840,-0.00062948,-0.07505903,0.49586541,0.00120653,0.00041238,0.0230
 1088,-0.00011624,0.00184586,0.00206285,-0.00208969,-0.00127803,0.02087
 176,0.01573985,0.00062742,-0.08340561,0.01252882,-0.00936826,0.5688890
 2,-0.09499760,-0.03796006,0.00085772,-0.69633464,0.29292430,-0.0115760
 9,0.02806086,0.00055787,0.00015259,-0.07958721,0.00993516,-0.00070137,
 -0.01776031,0.02802511,-0.00289789,0.97578837,-0.06563570,-0.20280917,
 0.00298466,0.31296007,-0.25475703,0.00617518,0.02414789,-0.00770682,-0
 .00043066,0.02884307,-0.17511453,0.00252442,0.02130898,-0.00468259,-0.
 00209556,-0.29018110,0.62511637,0.00196837,0.00258239,-0.05919453,-0.0
 1276933,0.00693143,-0.07644435,-0.00064251,0.00019452,0.00487860,-0.00
 094004,0.00305835,-0.09198122,0.00073405,-0.00491567,-0.00231410,0.009
 63175,-0.01470400,0.22814274,-0.09495203,0.03792907,0.00086660,0.02805
 953,-0.00056042,0.00015119,-0.69640742,-0.29289418,-0.01163936,-0.0177
 6581,-0.02802323,-0.00289729,-0.07959104,-0.00994568,-0.00070099,-0.11
 190882,-0.02629136,0.00133599,0.97582275,0.06560539,-0.20280460,-0.003
 02087,-0.02414990,-0.00770472,0.00042863,-0.31293161,-0.25470530,-0.00
 621365,-0.02130678,-0.00467791,0.00209629,-0.02885436,-0.17511106,-0.0
 0251967,0.02630382,0.04959986,-0.00101361,0.29018422,0.62505340,0.0019
 8237,-0.00260954,-0.05919707,-0.00064824,-0.00019698,0.00487877,-0.012
 83223,-0.00696326,-0.07644480,0.00073237,0.00491501,-0.00231423,-0.000
 94208,-0.00306857,-0.09198108,0.00133796,0.00102532,-0.00445089,0.0096
 8797,0.01476506,0.22814589,0.00160889,0.00042475,0.00061190,-0.0010992
 8,0.00112020,0.00210391,-0.00037658,-0.00146448,-0.00076998,-0.0637509
 5,-0.02382338,0.06472745,-0.00856591,-0.01059529,0.02777902,0.00138410
 ,-0.00022065,-0.01050912,-0.00315503,0.00232172,0.00151052,0.07234087,
 -0.00143340,-0.00405175,-0.00430373,0.00041389,0.00045605,-0.00471993,
 -0.00035884,0.00024339,0.00008840,-0.02581749,-0.07617807,0.08740867,0
 .00185446,0.00107736,-0.00452728,-0.00867734,-0.01054100,0.03459776,0.
 00116595,-0.00145721,0.00018755,0.02686840,0.08234236,-0.00123904,-0.0
 0037072,-0.00081377,0.00038265,-0.00013477,0.00075671,-0.00014609,0.00
 007345,-0.00012020,0.06683767,0.08454294,-0.26198609,0.00006732,-0.000
 90003,-0.00008013,-0.00018805,0.00090441,-0.00037799,0.00016018,-0.000
 86785,-0.00022237,-0.07208178,-0.09252738,0.28009450,0.00248132,0.0011
 5467,-0.00143931,-0.00091230,0.00053965,-0.00149138,-0.00052936,-0.002
 48471,0.00021404,-0.11531310,-0.06787802,-0.09667822,-0.01268848,-0.01
 530887,-0.01950820,0.00394296,0.00100668,0.00987798,-0.00543179,0.0036
 1637,-0.00019680,0.00420180,0.00473253,0.00595305,0.12512695,-0.001423
 90,-0.00498419,0.00333087,0.00060026,0.00230702,0.00385792,-0.00053389
 ,0.00058507,-0.00014670,-0.06827682,-0.11468930,-0.09996193,0.00299457
 ,0.00241309,0.00434668,-0.01761819,-0.01538108,-0.02666519,0.00214388,
 -0.00226761,-0.00012238,0.00630270,0.00688499,0.00889072,0.07537519,0.
 12431466,0.00079687,0.00153834,-0.00080965,0.00058188,-0.00038524,0.00
 026619,0.00022226,0.00062017,-0.00011114,-0.09804458,-0.10107104,-0.18
 005959,0.00357727,0.00503908,0.00498976,0.00136535,0.00324713,0.002015
 40,0.00185843,0.00049818,-0.00005144,-0.01384582,-0.01577804,-0.019226
 26,0.10309623,0.10636241,0.19150876,0.00160913,-0.00042550,0.00061264,
 -0.00037658,0.00146471,-0.00076981,-0.00109971,-0.00112017,0.00210453,
 -0.00856370,0.01059667,0.02777877,-0.06375028,0.02382441,0.06472434,-0
 .00315511,-0.00232152,0.00151009,0.00138549,0.00022049,-0.01051283,-0.
 00418177,0.00151332,0.00035217,0.00159410,-0.00057910,0.00012154,0.072
 33773,0.00143384,-0.00405403,0.00430277,0.00035903,0.00024321,-0.00008
 834,-0.00041431,0.00045576,0.00471977,-0.00185360,0.00107631,0.0045246
 5,0.02581778,-0.07618368,-0.08741581,-0.00116611,-0.00145696,-0.000187
 91,0.00867761,-0.01054047,-0.03459676,-0.00151287,0.00057678,0.0003728
 4,0.00026146,0.00064700,0.00005307,-0.02687069,0.08234976,-0.00123901,
 0.00037112,-0.00081366,-0.00014599,-0.00007339,-0.00012016,0.00038238,
 0.00013444,0.00075659,0.00006743,0.00090058,-0.00007944,0.06683402,-0.
 08455111,-0.26198213,0.00015997,0.00086768,-0.00022240,-0.00018787,-0.
 00090488,-0.00037850,0.00035209,-0.00037288,0.00080355,-0.00009793,-0.
 00001643,0.00117191,-0.07207758,0.09253676,0.28009098,0.00248129,-0.00
 115472,-0.00143954,-0.00052899,0.00248486,0.00021439,-0.00091238,-0.00
 053959,-0.00149181,-0.01268811,0.01531028,-0.01950910,-0.11529361,0.06
 787450,-0.09666554,-0.00543259,-0.00361638,-0.00019724,0.00394416,-0.0
 0100937,0.00988098,0.00159386,-0.00026148,-0.00009809,-0.00247210,0.00
 101529,0.00027058,0.00420071,-0.00473215,0.00595248,0.12510775,0.00142
 283,-0.00498232,-0.00333139,0.00053396,0.00058477,0.00014678,-0.000599
 31,0.00230742,-0.00385786,-0.00299263,0.00241189,-0.00434441,0.0682744
 3,-0.11470179,0.09997228,-0.00214345,-0.00226705,0.00012192,0.01761413
 ,-0.01538437,0.02666455,0.00057889,0.00064712,0.00001640,-0.00101496,0
 .00017035,-0.00012406,-0.00630264,0.00688632,-0.00889188,-0.07537124,0
 .12432766,0.00079679,-0.00153805,-0.00081033,0.00022223,-0.00062008,-0
 .00011128,0.00058169,0.00038495,0.00026636,0.00357688,-0.00503885,0.00
 498947,-0.09803217,0.10108070,-0.18006122,0.00185805,-0.00049858,-0.00
 005126,0.00136515,-0.00324762,0.00201573,0.00012181,-0.00005315,0.0011
 7205,0.00027054,0.00012403,0.00030605,-0.01384387,0.01577898,-0.019226
 76,0.10308289,-0.10637233,0.19151120\\-0.00000757,0.00000599,0.0000118
 8,0.00001354,-0.00000431,0.00000519,-0.00001747,-0.00000492,0.00000766
 ,-0.00000977,0.00006597,-0.00002504,0.00000750,0.00006685,0.00003653,0
 .00000539,-0.00004202,-0.00001155,0.00000754,-0.00004617,-0.00002639,-
 0.00000890,-0.00001135,0.00000142,-0.00000771,-0.00000947,0.00001162,0
 .00001079,-0.00000848,-0.00000057,0.00000667,-0.00001208,-0.00001076\\
 \@


            THE IRISH PIG
 'TWAS AN EVENING IN NOVEMBER,
 AS I VERY WELL REMEMBER
 I WAS STROLLING DOWN THE STREET IN DRUNKEN PRIDE,
 BUT MY KNEES WERE ALL A'FLUTTER
 SO I LANDED IN THE GUTTER,
 AND A PIG CAME UP AND LAY DOWN BY MY SIDE.

 YES, I LAY THERE IN THE GUTTER
 THINKING THOUGHTS I COULD NOT UTTER
 WHEN A COLLEEN PASSING BY DID SOFTLY SAY,
 'YE CAN TELL A MAN THAT BOOZES
 BY THE COMPANY THAT HE CHOOSES.' -
 AT THAT, THE PIG GOT UP AND WALKED AWAY!
     -- THE ECONOMIST, AUGUST 23, 1986
 Job cpu time:       0 days  0 hours 36 minutes 50.0 seconds.
 Elapsed time:       0 days  0 hours  2 minutes 19.5 seconds.
 File lengths (MBytes):  RWF=     41 Int=      0 D2E=      0 Chk=      4 Scr=      1
 Normal termination of Gaussian 16 at Sat Sep 27 14:20:48 2025.
