 Entering Gaussian System, Link 0=g16
 Input=SLBE0073.gjf
 Output=SLBE0073.log
 Initial command:
 /usr/local/g16/l1.exe "/dados_01/scratch/Gau-2602621.inp" -scrdir="/dados_01/scratch/"
 Entering Link 1 = /usr/local/g16/l1.exe PID=   2602622.
  
 Copyright (c) 1988-2017, Gaussian, Inc.  All Rights Reserved.
  
 This is part of the Gaussian(R) 16 program.  It is based on
 the Gaussian(R) 09 system (copyright 2009, Gaussian, Inc.),
 the Gaussian(R) 03 system (copyright 2003, Gaussian, Inc.),
 the Gaussian(R) 98 system (copyright 1998, Gaussian, Inc.),
 the Gaussian(R) 94 system (copyright 1995, Gaussian, Inc.),
 the Gaussian 92(TM) system (copyright 1992, Gaussian, Inc.),
 the Gaussian 90(TM) system (copyright 1990, Gaussian, Inc.),
 the Gaussian 88(TM) system (copyright 1988, Gaussian, Inc.),
 the Gaussian 86(TM) system (copyright 1986, Carnegie Mellon
 University), and the Gaussian 82(TM) system (copyright 1983,
 Carnegie Mellon University). Gaussian is a federally registered
 trademark of Gaussian, Inc.
  
 This software contains proprietary and confidential information,
 including trade secrets, belonging to Gaussian, Inc.
  
 This software is provided under written license and may be
 used, copied, transmitted, or stored only in accord with that
 written license.
  
 The following legend is applicable only to US Government
 contracts under FAR:
  
                    RESTRICTED RIGHTS LEGEND
  
 Use, reproduction and disclosure by the US Government is
 subject to restrictions as set forth in subparagraphs (a)
 and (c) of the Commercial Computer Software - Restricted
 Rights clause in FAR 52.227-19.
  
 Gaussian, Inc.
 340 Quinnipiac St., Bldg. 40, Wallingford CT 06492
  
  
 ---------------------------------------------------------------
 Warning -- This program may not be used in any manner that
 competes with the business of Gaussian, Inc. or will provide
 assistance to any competitor of Gaussian, Inc.  The licensee
 of this program is prohibited from giving any competitor of
 Gaussian, Inc. access to this program.  By using this program,
 the user acknowledges that Gaussian, Inc. is engaged in the
 business of creating and licensing software in the field of
 computational chemistry and represents and warrants to the
 licensee that it is not a competitor of Gaussian, Inc. and that
 it will not use this program in any manner prohibited above.
 ---------------------------------------------------------------
  

 Cite this work as:
 Gaussian 16, Revision B.01,
 M. J. Frisch, G. W. Trucks, H. B. Schlegel, G. E. Scuseria, 
 M. A. Robb, J. R. Cheeseman, G. Scalmani, V. Barone, 
 G. A. Petersson, H. Nakatsuji, X. Li, M. Caricato, A. V. Marenich, 
 J. Bloino, B. G. Janesko, R. Gomperts, B. Mennucci, H. P. Hratchian, 
 J. V. Ortiz, A. F. Izmaylov, J. L. Sonnenberg, D. Williams-Young, 
 F. Ding, F. Lipparini, F. Egidi, J. Goings, B. Peng, A. Petrone, 
 T. Henderson, D. Ranasinghe, V. G. Zakrzewski, J. Gao, N. Rega, 
 G. Zheng, W. Liang, M. Hada, M. Ehara, K. Toyota, R. Fukuda, 
 J. Hasegawa, M. Ishida, T. Nakajima, Y. Honda, O. Kitao, H. Nakai, 
 T. Vreven, K. Throssell, J. A. Montgomery, Jr., J. E. Peralta, 
 F. Ogliaro, M. J. Bearpark, J. J. Heyd, E. N. Brothers, K. N. Kudin, 
 V. N. Staroverov, T. A. Keith, R. Kobayashi, J. Normand, 
 K. Raghavachari, A. P. Rendell, J. C. Burant, S. S. Iyengar, 
 J. Tomasi, M. Cossi, J. M. Millam, M. Klene, C. Adamo, R. Cammi, 
 J. W. Ochterski, R. L. Martin, K. Morokuma, O. Farkas, 
 J. B. Foresman, and D. J. Fox, Gaussian, Inc., Wallingford CT, 2016.
 
 ******************************************
 Gaussian 16:  ES64L-G16RevB.01 20-Dec-2017
                10-Oct-2025 
 ******************************************
 %nprocs=16
 Will use up to   16 processors via shared memory.
 %mem=40GB
 %chk=SLBE0073.chk
 ----------------------------------------------------------------------
 # opt freq=noraman M08HX/6-311++G** scf=xqc Empiricaldispersion=pfd In
 t(Grid=ultraFine)
 ----------------------------------------------------------------------
 1/18=20,19=15,26=4,38=1/1,3;
 2/9=110,12=2,17=6,18=5,40=1/2;
 3/5=4,6=6,7=1111,11=2,25=1,30=1,71=1,74=-74,75=-5,124=11/1,2,3;
 4//1;
 5/5=2,8=3,13=1,38=5/2,8;
 6/7=2,8=2,9=2,10=2,28=1/1;
 7//1,2,3,16;
 1/18=20,19=15,26=4/3(2);
 2/9=110/2;
 99//99;
 2/9=110/2;
 3/5=4,6=6,7=1111,11=2,25=1,30=1,71=1,74=-74,75=-5,124=11/1,2,3;
 4/5=5,16=3,69=1/1;
 5/5=2,8=3,13=1,38=5/2,8;
 7//1,2,3,16;
 1/18=20,19=15,26=4/3(-5);
 2/9=110/2;
 6/7=2,8=2,9=2,10=2,19=2,28=1/1;
 99/9=1/99;
 --------
 SLBE0073
 --------
 Symbolic Z-matrix:
 Charge =  0 Multiplicity = 1
 C                     1.9294    0.2286   -0.0061 
 C                    -1.9133   -0.231    -0.0061 
 C                     0.4774    0.4795   -0.0158 
 C                    -0.4799   -0.4781   -0.0158 
 C                     2.4022   -1.0031    0.417 
 C                    -2.4053    1.0038    0.417 
 C                     2.7937    1.229    -0.4205 
 C                    -2.7959   -1.2285   -0.4205 
 C                     3.7766   -1.2409    0.4258 
 C                    -3.7798    1.2411    0.4257 
 C                     4.1681    0.9911   -0.4118 
 C                    -4.1704   -0.9912   -0.4118 
 C                     4.6596   -0.2439    0.0114 
 C                    -4.6623    0.2436    0.0114 
 H                     0.2092    1.5323   -0.0414 
 H                    -0.2072   -1.5296   -0.0433 
 H                     1.7546   -1.7995    0.7694 
 H                    -1.7598    1.8027    0.7695 
 H                     2.4268    2.1959   -0.7544 
 H                    -2.4317   -2.1969   -0.7551 
 H                     4.1602   -2.2005    0.7602 
 H                    -4.1639    2.2006    0.76 
 H                     4.8558    1.7673   -0.7345 
 H                    -4.8578   -1.7677   -0.7345 
 H                     5.7298   -0.4286    0.0195 
 H                    -5.7326    0.428     0.0193 
 

 GradGradGradGradGradGradGradGradGradGradGradGradGradGradGradGradGradGrad
 Berny optimization.
 Initialization pass.
                           ----------------------------
                           !    Initial Parameters    !
                           ! (Angstroms and Degrees)  !
 --------------------------                            --------------------------
 ! Name  Definition              Value          Derivative Info.                !
 --------------------------------------------------------------------------------
 ! R1    R(1,3)                  1.4735         estimate D2E/DX2                !
 ! R2    R(1,5)                  1.3855         estimate D2E/DX2                !
 ! R3    R(1,7)                  1.3855         estimate D2E/DX2                !
 ! R4    R(2,4)                  1.4546         estimate D2E/DX2                !
 ! R5    R(2,6)                  1.3949         estimate D2E/DX2                !
 ! R6    R(2,8)                  1.3949         estimate D2E/DX2                !
 ! R7    R(3,4)                  1.354          estimate D2E/DX2                !
 ! R8    R(3,15)                 1.0867         estimate D2E/DX2                !
 ! R9    R(4,16)                 1.0866         estimate D2E/DX2                !
 ! R10   R(5,9)                  1.3948         estimate D2E/DX2                !
 ! R11   R(5,17)                 1.0853         estimate D2E/DX2                !
 ! R12   R(6,10)                 1.3949         estimate D2E/DX2                !
 ! R13   R(6,18)                 1.0859         estimate D2E/DX2                !
 ! R14   R(7,11)                 1.3949         estimate D2E/DX2                !
 ! R15   R(7,19)                 1.0867         estimate D2E/DX2                !
 ! R16   R(8,12)                 1.3949         estimate D2E/DX2                !
 ! R17   R(8,20)                 1.0874         estimate D2E/DX2                !
 ! R18   R(9,13)                 1.3948         estimate D2E/DX2                !
 ! R19   R(9,21)                 1.0862         estimate D2E/DX2                !
 ! R20   R(10,14)                1.3948         estimate D2E/DX2                !
 ! R21   R(10,22)                1.0862         estimate D2E/DX2                !
 ! R22   R(11,13)                1.395          estimate D2E/DX2                !
 ! R23   R(11,23)                1.0861         estimate D2E/DX2                !
 ! R24   R(12,14)                1.3949         estimate D2E/DX2                !
 ! R25   R(12,24)                1.0861         estimate D2E/DX2                !
 ! R26   R(13,25)                1.0861         estimate D2E/DX2                !
 ! R27   R(14,26)                1.0861         estimate D2E/DX2                !
 ! A1    A(3,1,5)              119.3164         estimate D2E/DX2                !
 ! A2    A(3,1,7)              119.3269         estimate D2E/DX2                !
 ! A3    A(5,1,7)              121.3566         estimate D2E/DX2                !
 ! A4    A(4,2,6)              119.9983         estimate D2E/DX2                !
 ! A5    A(4,2,8)              120.0043         estimate D2E/DX2                !
 ! A6    A(6,2,8)              119.9975         estimate D2E/DX2                !
 ! A7    A(1,3,4)              125.1865         estimate D2E/DX2                !
 ! A8    A(1,3,15)             114.0978         estimate D2E/DX2                !
 ! A9    A(4,3,15)             120.7075         estimate D2E/DX2                !
 ! A10   A(2,4,3)              125.2092         estimate D2E/DX2                !
 ! A11   A(2,4,16)             114.3217         estimate D2E/DX2                !
 ! A12   A(3,4,16)             120.4592         estimate D2E/DX2                !
 ! A13   A(1,5,9)              119.3227         estimate D2E/DX2                !
 ! A14   A(1,5,17)             123.2224         estimate D2E/DX2                !
 ! A15   A(9,5,17)             117.4396         estimate D2E/DX2                !
 ! A16   A(2,6,10)             120.0031         estimate D2E/DX2                !
 ! A17   A(2,6,18)             122.6872         estimate D2E/DX2                !
 ! A18   A(10,6,18)            117.2953         estimate D2E/DX2                !
 ! A19   A(1,7,11)             119.3183         estimate D2E/DX2                !
 ! A20   A(1,7,19)             121.5823         estimate D2E/DX2                !
 ! A21   A(11,7,19)            119.0993         estimate D2E/DX2                !
 ! A22   A(2,8,12)             119.9994         estimate D2E/DX2                !
 ! A23   A(2,8,20)             121.088          estimate D2E/DX2                !
 ! A24   A(12,8,20)            118.9125         estimate D2E/DX2                !
 ! A25   A(5,9,13)             120.0036         estimate D2E/DX2                !
 ! A26   A(5,9,21)             120.0359         estimate D2E/DX2                !
 ! A27   A(13,9,21)            119.9598         estimate D2E/DX2                !
 ! A28   A(6,10,14)            119.997          estimate D2E/DX2                !
 ! A29   A(6,10,22)            120.042          estimate D2E/DX2                !
 ! A30   A(14,10,22)           119.9602         estimate D2E/DX2                !
 ! A31   A(7,11,13)            120.0041         estimate D2E/DX2                !
 ! A32   A(7,11,23)            120.0108         estimate D2E/DX2                !
 ! A33   A(13,11,23)           119.9851         estimate D2E/DX2                !
 ! A34   A(8,12,14)            119.9986         estimate D2E/DX2                !
 ! A35   A(8,12,24)            120.0124         estimate D2E/DX2                !
 ! A36   A(14,12,24)           119.989          estimate D2E/DX2                !
 ! A37   A(9,13,11)            119.9947         estimate D2E/DX2                !
 ! A38   A(9,13,25)            120.0035         estimate D2E/DX2                !
 ! A39   A(11,13,25)           120.0017         estimate D2E/DX2                !
 ! A40   A(10,14,12)           120.0044         estimate D2E/DX2                !
 ! A41   A(10,14,26)           119.995          estimate D2E/DX2                !
 ! A42   A(12,14,26)           120.0006         estimate D2E/DX2                !
 ! D1    D(5,1,3,4)            -20.0099         estimate D2E/DX2                !
 ! D2    D(5,1,3,15)           161.0342         estimate D2E/DX2                !
 ! D3    D(7,1,3,4)            159.9756         estimate D2E/DX2                !
 ! D4    D(7,1,3,15)           -18.9803         estimate D2E/DX2                !
 ! D5    D(3,1,5,9)            179.9781         estimate D2E/DX2                !
 ! D6    D(3,1,5,17)            -1.4828         estimate D2E/DX2                !
 ! D7    D(7,1,5,9)             -0.0071         estimate D2E/DX2                !
 ! D8    D(7,1,5,17)           178.532          estimate D2E/DX2                !
 ! D9    D(3,1,7,11)          -179.9721         estimate D2E/DX2                !
 ! D10   D(3,1,7,19)            -0.0735         estimate D2E/DX2                !
 ! D11   D(5,1,7,11)             0.0131         estimate D2E/DX2                !
 ! D12   D(5,1,7,19)           179.9118         estimate D2E/DX2                !
 ! D13   D(6,2,4,3)            -19.997          estimate D2E/DX2                !
 ! D14   D(6,2,4,16)           161.1521         estimate D2E/DX2                !
 ! D15   D(8,2,4,3)            159.9708         estimate D2E/DX2                !
 ! D16   D(8,2,4,16)           -18.8801         estimate D2E/DX2                !
 ! D17   D(4,2,6,10)           179.9675         estimate D2E/DX2                !
 ! D18   D(4,2,6,18)            -1.4488         estimate D2E/DX2                !
 ! D19   D(8,2,6,10)            -0.0003         estimate D2E/DX2                !
 ! D20   D(8,2,6,18)           178.5834         estimate D2E/DX2                !
 ! D21   D(4,2,8,12)          -179.9675         estimate D2E/DX2                !
 ! D22   D(4,2,8,20)            -0.0574         estimate D2E/DX2                !
 ! D23   D(6,2,8,12)             0.0003         estimate D2E/DX2                !
 ! D24   D(6,2,8,20)           179.9104         estimate D2E/DX2                !
 ! D25   D(1,3,4,2)            179.0709         estimate D2E/DX2                !
 ! D26   D(1,3,4,16)            -2.1439         estimate D2E/DX2                !
 ! D27   D(15,3,4,2)            -2.0377         estimate D2E/DX2                !
 ! D28   D(15,3,4,16)          176.7476         estimate D2E/DX2                !
 ! D29   D(1,5,9,13)            -0.0011         estimate D2E/DX2                !
 ! D30   D(1,5,9,21)           179.678          estimate D2E/DX2                !
 ! D31   D(17,5,9,13)         -178.624          estimate D2E/DX2                !
 ! D32   D(17,5,9,21)            1.055          estimate D2E/DX2                !
 ! D33   D(2,6,10,14)            0.0044         estimate D2E/DX2                !
 ! D34   D(2,6,10,22)          179.6781         estimate D2E/DX2                !
 ! D35   D(18,6,10,14)        -178.6542         estimate D2E/DX2                !
 ! D36   D(18,6,10,22)           1.0195         estimate D2E/DX2                !
 ! D37   D(1,7,11,13)           -0.011          estimate D2E/DX2                !
 ! D38   D(1,7,11,23)          179.9886         estimate D2E/DX2                !
 ! D39   D(19,7,11,13)        -179.9122         estimate D2E/DX2                !
 ! D40   D(19,7,11,23)           0.0874         estimate D2E/DX2                !
 ! D41   D(2,8,12,14)           -0.0044         estimate D2E/DX2                !
 ! D42   D(2,8,12,24)          179.9947         estimate D2E/DX2                !
 ! D43   D(20,8,12,14)        -179.9165         estimate D2E/DX2                !
 ! D44   D(20,8,12,24)           0.0826         estimate D2E/DX2                !
 ! D45   D(5,9,13,11)            0.003          estimate D2E/DX2                !
 ! D46   D(5,9,13,25)          179.919          estimate D2E/DX2                !
 ! D47   D(21,9,13,11)        -179.6763         estimate D2E/DX2                !
 ! D48   D(21,9,13,25)           0.2397         estimate D2E/DX2                !
 ! D49   D(6,10,14,12)          -0.0086         estimate D2E/DX2                !
 ! D50   D(6,10,14,26)         179.9277         estimate D2E/DX2                !
 ! D51   D(22,10,14,12)       -179.6826         estimate D2E/DX2                !
 ! D52   D(22,10,14,26)          0.2538         estimate D2E/DX2                !
 ! D53   D(7,11,13,9)            0.0031         estimate D2E/DX2                !
 ! D54   D(7,11,13,25)        -179.9129         estimate D2E/DX2                !
 ! D55   D(23,11,13,9)        -179.9965         estimate D2E/DX2                !
 ! D56   D(23,11,13,25)          0.0875         estimate D2E/DX2                !
 ! D57   D(8,12,14,10)           0.0086         estimate D2E/DX2                !
 ! D58   D(8,12,14,26)        -179.9277         estimate D2E/DX2                !
 ! D59   D(24,12,14,10)       -179.9905         estimate D2E/DX2                !
 ! D60   D(24,12,14,26)          0.0731         estimate D2E/DX2                !
 --------------------------------------------------------------------------------
 Trust Radius=3.00D-01 FncErr=1.00D-07 GrdErr=1.00D-06 EigMax=2.50D+02 EigMin=1.00D-04
 Number of steps in this run=    139 maximum allowed number of steps=    156.
 GradGradGradGradGradGradGradGradGradGradGradGradGradGradGradGradGradGrad

                          Input orientation:                          
 ---------------------------------------------------------------------
 Center     Atomic      Atomic             Coordinates (Angstroms)
 Number     Number       Type             X           Y           Z
 ---------------------------------------------------------------------
      1          6           0        1.929400    0.228600   -0.006100
      2          6           0       -1.913300   -0.231000   -0.006100
      3          6           0        0.477400    0.479500   -0.015800
      4          6           0       -0.479900   -0.478100   -0.015800
      5          6           0        2.402200   -1.003100    0.417000
      6          6           0       -2.405300    1.003800    0.417000
      7          6           0        2.793700    1.229000   -0.420500
      8          6           0       -2.795900   -1.228500   -0.420500
      9          6           0        3.776600   -1.240900    0.425800
     10          6           0       -3.779800    1.241100    0.425700
     11          6           0        4.168100    0.991100   -0.411800
     12          6           0       -4.170400   -0.991200   -0.411800
     13          6           0        4.659600   -0.243900    0.011400
     14          6           0       -4.662300    0.243600    0.011400
     15          1           0        0.209200    1.532300   -0.041400
     16          1           0       -0.207200   -1.529600   -0.043300
     17          1           0        1.754600   -1.799500    0.769400
     18          1           0       -1.759800    1.802700    0.769500
     19          1           0        2.426800    2.195900   -0.754400
     20          1           0       -2.431700   -2.196900   -0.755100
     21          1           0        4.160200   -2.200500    0.760200
     22          1           0       -4.163900    2.200600    0.760000
     23          1           0        4.855800    1.767300   -0.734500
     24          1           0       -4.857800   -1.767700   -0.734500
     25          1           0        5.729800   -0.428600    0.019500
     26          1           0       -5.732600    0.428000    0.019300
 ---------------------------------------------------------------------
                    Distance matrix (angstroms):
                    1          2          3          4          5
     1  C    0.000000
     2  C    3.870087   0.000000
     3  C    1.473550   2.494063   0.000000
     4  C    2.510826   1.454575   1.354039   0.000000
     5  C    1.385510   4.404395   2.467848   2.961324   0.000000
     6  C    4.423751   1.394922   2.961784   2.467896   5.209578
     7  C    1.385475   4.945622   2.467950   3.714085   2.415978
     8  C    4.962190   1.394889   3.714235   2.467942   5.269958
     9  C    2.399607   5.794946   3.746933   4.346800   1.394848
    10  C    5.814342   2.416061   4.347265   3.746987   6.576749
    11  C    2.399537   6.216233   3.746974   4.890733   2.789650
    12  C    6.233784   2.415988   4.890994   3.746983   6.624660
    13  C    2.770840   6.572936   4.244390   5.144905   2.415937
    14  C    6.591740   2.789723   5.145183   4.244297   7.185119
    15  H    2.158696   2.759616   1.086726   2.125376   3.383435
    16  H    2.767257   2.144417   2.122714   1.086634   2.701490
    17  H    2.178335   4.063875   2.727933   2.712126   1.085276
    18  H    4.085284   2.181984   2.715257   2.730730   5.031800
    19  H    2.162783   5.028545   2.700318   4.018048   3.406814
    20  H    5.046112   2.166680   4.021510   2.703768   5.115229
    21  H    3.385884   6.430672   4.620345   5.009927   2.154557
    22  H    6.450116   3.400704   5.010561   4.620515   7.314028
    23  H    3.385555   7.095385   4.620102   5.833356   3.875722
    24  H    7.112093   3.400308   5.833592   4.620131   7.390410
    25  H    3.856891   7.645697   5.330441   6.209998   3.400144
    26  H    7.664636   3.875820   6.210313   5.330395   8.269292
                    6          7          8          9         10
     6  C    0.000000
     7  C    5.270837   0.000000
     8  C    2.416017   6.105975   0.000000
     9  C    6.576826   2.789753   6.626774   0.000000
    10  C    1.394861   6.627752   2.789810   7.953584   0.000000
    11  C    6.625455   1.394865   7.309172   2.415920   7.995813
    12  C    2.789715   7.309450   1.394861   7.994919   2.416017
    13  C    7.185686   2.416103   7.532626   1.394785   8.579064
    14  C    2.415878   7.533226   2.416002   8.578491   1.394796
    15  H    2.706484   2.629705   4.098336   4.542605   4.026798
    16  H    3.385504   4.093599   2.633308   4.021699   4.545350
    17  H    5.028662   3.415758   4.738033   2.125695   6.323999
    18  H    1.085895   4.741265   3.417276   6.327192   2.124616
    19  H    5.112971   1.086738   6.254167   3.876393   6.389535
    20  H    3.408665   6.257280   1.087381   6.391514   3.877049
    21  H    7.313762   3.875931   7.122230   1.086188   8.660260
    22  H    2.154682   7.123608   3.876046   8.660667   1.086246
    23  H    7.391377   2.154210   8.223255   3.400035   8.729063
    24  H    3.875812   8.223397   2.154243   8.727925   3.400151
    25  H    8.269802   3.400282   8.574439   2.154043   9.663612
    26  H    3.400094   8.575128   3.400239   9.663092   2.154001
                   11         12         13         14         15
    11  C    0.000000
    12  C    8.570887   0.000000
    13  C    1.394954   8.871666   0.000000
    14  C    8.872081   1.394918   9.334638   0.000000
    15  H    4.012852   5.068150   4.792049   5.039350   0.000000
    16  H    5.062901   4.016543   5.034060   4.795325   3.090085
    17  H    3.873973   6.095425   3.381343   6.776830   3.761190
    18  H    6.098702   3.874576   6.780264   3.380830   2.146540
    19  H    2.145004   7.334714   3.394771   7.392785   2.422083
    20  H    7.337476   2.143512   7.395152   3.393986   4.625003
    21  H    3.399994   8.499111   2.153691   9.185360   5.494248
    22  H    8.500484   3.400110   9.186410   2.153753   4.495873
    23  H    1.086072   9.443820   2.154016   9.668105   4.703882
    24  H    9.443621   1.086097   9.667432   2.154046   6.086450
    25  H    2.154176   9.925548   1.086051  10.413821   5.858828
    26  H    9.926066   2.154169  10.413901   1.086098   6.043852
                   16         17         18         19         20
    16  H    0.000000
    17  H    2.140558   0.000000
    18  H    3.765028   5.032579   0.000000
    19  H    4.617680   4.328630   4.472639   0.000000
    20  H    2.429063   4.472934   4.332742   6.549940   0.000000
    21  H    4.491091   2.438811   7.146474   4.962562   6.763822
    22  H    5.496832   7.143496   2.436824   6.762452   4.963270
    23  H    6.081223   4.959962   6.784499   2.466604   8.295961
    24  H    4.707710   6.781339   4.960582   8.293125   2.463858
    25  H    6.038552   4.271292   7.850816   4.289141   8.386714
    26  H    5.862266   7.847456   4.270333   8.384503   4.287859
                   21         22         23         24         25
    21  H    0.000000
    22  H    9.415961   0.000000
    23  H    4.296676   9.152938   0.000000
    24  H    9.151271   4.296793  10.336839   0.000000
    25  H    2.480304  10.263836   2.480800  10.698550   0.000000
    26  H   10.262818   2.480235  10.699353   2.480844  11.494363
                   26
    26  H    0.000000
 Stoichiometry    C14H12
 Framework group  C1[X(C14H12)]
 Deg. of freedom    72
 Full point group                 C1      NOp   1
 Largest Abelian subgroup         C1      NOp   1
 Largest concise Abelian subgroup C1      NOp   1
                         Standard orientation:                         
 ---------------------------------------------------------------------
 Center     Atomic      Atomic             Coordinates (Angstroms)
 Number     Number       Type             X           Y           Z
 ---------------------------------------------------------------------
      1          6           0        1.929296    0.230829   -0.006455
      2          6           0       -1.912860   -0.233293   -0.006455
      3          6           0        0.477002    0.480020   -0.016155
      4          6           0       -0.479170   -0.478706   -0.016155
      5          6           0        2.403545   -1.000314    0.416645
      6          6           0       -2.406313    1.000928    0.416645
      7          6           0        2.792419    1.232245   -0.420855
      8          6           0       -2.794286   -1.231830   -0.420855
      9          6           0        3.778224   -1.236497    0.425445
     10          6           0       -3.781091    1.236610    0.425345
     11          6           0        4.167098    0.995962   -0.412155
     12          6           0       -4.169064   -0.996148   -0.412155
     13          6           0        4.660050   -0.238459    0.011045
     14          6           0       -4.662417    0.238073    0.011045
     15          1           0        0.207564    1.532504   -0.041755
     16          1           0       -0.205233   -1.529884   -0.043655
     17          1           0        1.756883   -1.797476    0.769045
     18          1           0       -1.761753    1.800587    0.769145
     19          1           0        2.424381    2.198712   -0.754755
     20          1           0       -2.428947   -2.199801   -0.755455
     21          1           0        4.162953   -2.195645    0.759845
     22          1           0       -4.166320    2.195658    0.759645
     23          1           0        4.853884    1.772971   -0.734855
     24          1           0       -4.855550   -1.773456   -0.734855
     25          1           0        5.730467   -0.421899    0.019145
     26          1           0       -5.732933    0.421213    0.018945
 ---------------------------------------------------------------------
 Rotational constants (GHZ):           2.6882604           0.2674359           0.2483649
 Standard basis: 6-311++G(d,p) (5D, 7F)
 There are   406 symmetry adapted cartesian basis functions of A   symmetry.
 There are   392 symmetry adapted basis functions of A   symmetry.
   392 basis functions,   612 primitive gaussians,   406 cartesian basis functions
    48 alpha electrons       48 beta electrons
       nuclear repulsion energy       736.1323442029 Hartrees.
 NAtoms=   26 NActive=   26 NUniq=   26 SFac= 1.00D+00 NAtFMM=   60 NAOKFM=F Big=F
 Integral buffers will be    131072 words long.
 Raffenetti 2 integral format.
 Two-electron integral symmetry is turned on.
 R6APFD:  NTU= -4 IXU= 1 FactS= 1.050
 Nuclear repulsion after empirical dispersion term =      736.1178961724 Hartrees.
 One-electron integrals computed using PRISM.
 NBasis=   392 RedAO= T EigKep=  1.83D-06  NBF=   392
 NBsUse=   388 1.00D-06 EigRej=  9.28D-07 NBFU=   388
 ExpMin= 3.60D-02 ExpMax= 4.56D+03 ExpMxC= 6.82D+02 IAcc=3 IRadAn=         5 AccDes= 0.00D+00
 Harris functional with IExCor= 1009 and IRadAn=       5 diagonalized for initial guess.
 HarFok:  IExCor= 1009 AccDes= 0.00D+00 IRadAn=         5 IDoV= 1 UseB2=F ITyADJ=14
 ICtDFT=  3500011 ScaDFX=  1.000000  1.000000  1.000000  1.000000
 FoFCou: FMM=F IPFlag=           0 FMFlag=      100000 FMFlg1=           0
         NFxFlg=           0 DoJE=T BraDBF=F KetDBF=T FulRan=T
         wScrn=  0.000000 ICntrl=       500 IOpCl=  0 I1Cent=   200000004 NGrid=           0
         NMat0=    1 NMatS0=      1 NMatT0=    0 NMatD0=    1 NMtDS0=    0 NMtDT0=    0
 Petite list used in FoFCou.
 Requested convergence on RMS density matrix=1.00D-08 within  32 cycles.
 Requested convergence on MAX density matrix=1.00D-06.
 Requested convergence on             energy=1.00D-06.
 No special actions if energy rises.
 SCF Done:  E(RM08HX) =  -540.702123030     A.U. after   15 cycles
            NFock= 15  Conv=0.23D-08     -V/T= 2.0051
 QCSCF skips out because SCF is already converged.

 **********************************************************************

            Population analysis using the SCF Density.

 **********************************************************************

 Orbital symmetries:
       Occupied  (A) (A) (A) (A) (A) (A) (A) (A) (A) (A) (A) (A)
                 (A) (A) (A) (A) (A) (A) (A) (A) (A) (A) (A) (A)
                 (A) (A) (A) (A) (A) (A) (A) (A) (A) (A) (A) (A)
                 (A) (A) (A) (A) (A) (A) (A) (A) (A) (A) (A) (A)
       Virtual   (A) (A) (A) (A) (A) (A) (A) (A) (A) (A) (A) (A)
                 (A) (A) (A) (A) (A) (A) (A) (A) (A) (A) (A) (A)
                 (A) (A) (A) (A) (A) (A) (A) (A) (A) (A) (A) (A)
                 (A) (A) (A) (A) (A) (A) (A) (A) (A) (A) (A) (A)
                 (A) (A) (A) (A) (A) (A) (A) (A) (A) (A) (A) (A)
                 (A) (A) (A) (A) (A) (A) (A) (A) (A) (A) (A) (A)
                 (A) (A) (A) (A) (A) (A) (A) (A) (A) (A) (A) (A)
                 (A) (A) (A) (A) (A) (A) (A) (A) (A) (A) (A) (A)
                 (A) (A) (A) (A) (A) (A) (A) (A) (A) (A) (A) (A)
                 (A) (A) (A) (A) (A) (A) (A) (A) (A) (A) (A) (A)
                 (A) (A) (A) (A) (A) (A) (A) (A) (A) (A) (A) (A)
                 (A) (A) (A) (A) (A) (A) (A) (A) (A) (A) (A) (A)
                 (A) (A) (A) (A) (A) (A) (A) (A) (A) (A) (A) (A)
                 (A) (A) (A) (A) (A) (A) (A) (A) (A) (A) (A) (A)
                 (A) (A) (A) (A) (A) (A) (A) (A) (A) (A) (A) (A)
                 (A) (A) (A) (A) (A) (A) (A) (A) (A) (A) (A) (A)
                 (A) (A) (A) (A) (A) (A) (A) (A) (A) (A) (A) (A)
                 (A) (A) (A) (A) (A) (A) (A) (A) (A) (A) (A) (A)
                 (A) (A) (A) (A) (A) (A) (A) (A) (A) (A) (A) (A)
                 (A) (A) (A) (A) (A) (A) (A) (A) (A) (A) (A) (A)
                 (A) (A) (A) (A) (A) (A) (A) (A) (A) (A) (A) (A)
                 (A) (A) (A) (A) (A) (A) (A) (A) (A) (A) (A) (A)
                 (A) (A) (A) (A) (A) (A) (A) (A) (A) (A) (A) (A)
                 (A) (A) (A) (A) (A) (A) (A) (A) (A) (A) (A) (A)
                 (A) (A) (A) (A) (A) (A) (A) (A) (A) (A) (A) (A)
                 (A) (A) (A) (A) (A) (A) (A) (A) (A) (A) (A) (A)
                 (A) (A) (A) (A) (A) (A) (A) (A) (A) (A) (A) (A)
                 (A) (A) (A) (A) (A) (A) (A) (A) (A) (A) (A) (A)
                 (A) (A) (A) (A)
 The electronic state is 1-A.
 Alpha  occ. eigenvalues --  -10.54829 -10.54781 -10.54242 -10.54089 -10.54006
 Alpha  occ. eigenvalues --  -10.53999 -10.53945 -10.53931 -10.53917 -10.53882
 Alpha  occ. eigenvalues --  -10.53787 -10.53772 -10.53752 -10.53725  -0.98462
 Alpha  occ. eigenvalues --   -0.97715  -0.91293  -0.87067  -0.85611  -0.85492
 Alpha  occ. eigenvalues --   -0.81309  -0.73191  -0.70333  -0.70109  -0.67984
 Alpha  occ. eigenvalues --   -0.64250  -0.60058  -0.59685  -0.54896  -0.54424
 Alpha  occ. eigenvalues --   -0.53432  -0.51818  -0.50621  -0.49649  -0.49066
 Alpha  occ. eigenvalues --   -0.48847  -0.45913  -0.44907  -0.44671  -0.41744
 Alpha  occ. eigenvalues --   -0.41447  -0.40716  -0.40044  -0.37660  -0.32645
 Alpha  occ. eigenvalues --   -0.31615  -0.31551  -0.26521
 Alpha virt. eigenvalues --   -0.03931  -0.02743  -0.02030  -0.01893  -0.00773
 Alpha virt. eigenvalues --   -0.00592   0.00190   0.00379   0.00743   0.00928
 Alpha virt. eigenvalues --    0.01023   0.02628   0.02878   0.03159   0.03778
 Alpha virt. eigenvalues --    0.03792   0.04387   0.04956   0.05725   0.05951
 Alpha virt. eigenvalues --    0.06531   0.06780   0.07648   0.08286   0.09585
 Alpha virt. eigenvalues --    0.10152   0.10413   0.10664   0.10693   0.10946
 Alpha virt. eigenvalues --    0.11143   0.11329   0.11531   0.11674   0.11859
 Alpha virt. eigenvalues --    0.12032   0.12483   0.12704   0.13258   0.13542
 Alpha virt. eigenvalues --    0.13769   0.14164   0.14255   0.14390   0.14430
 Alpha virt. eigenvalues --    0.15618   0.15870   0.17014   0.17462   0.17995
 Alpha virt. eigenvalues --    0.18410   0.18499   0.18868   0.18894   0.19584
 Alpha virt. eigenvalues --    0.19904   0.19954   0.20017   0.21314   0.21399
 Alpha virt. eigenvalues --    0.22440   0.22748   0.23274   0.23423   0.23584
 Alpha virt. eigenvalues --    0.24244   0.24952   0.25114   0.25938   0.26036
 Alpha virt. eigenvalues --    0.27549   0.28748   0.29033   0.29143   0.30087
 Alpha virt. eigenvalues --    0.30250   0.30700   0.30740   0.31550   0.31995
 Alpha virt. eigenvalues --    0.32475   0.33615   0.34266   0.34284   0.37216
 Alpha virt. eigenvalues --    0.37647   0.38253   0.38793   0.39304   0.39442
 Alpha virt. eigenvalues --    0.41341   0.41979   0.45285   0.48149   0.50902
 Alpha virt. eigenvalues --    0.51105   0.52540   0.55310   0.56302   0.56687
 Alpha virt. eigenvalues --    0.56799   0.57384   0.57581   0.58138   0.58367
 Alpha virt. eigenvalues --    0.58730   0.59080   0.59607   0.59663   0.60710
 Alpha virt. eigenvalues --    0.61189   0.61398   0.62974   0.64255   0.65014
 Alpha virt. eigenvalues --    0.65582   0.65603   0.67444   0.67998   0.68930
 Alpha virt. eigenvalues --    0.70220   0.70378   0.71427   0.71709   0.72087
 Alpha virt. eigenvalues --    0.72408   0.73226   0.73554   0.75032   0.75358
 Alpha virt. eigenvalues --    0.77208   0.77431   0.77775   0.77983   0.78840
 Alpha virt. eigenvalues --    0.80634   0.82084   0.83375   0.85473   0.85733
 Alpha virt. eigenvalues --    0.86511   0.86563   0.87150   0.87708   0.87883
 Alpha virt. eigenvalues --    0.88681   0.89100   0.90767   0.92188   0.93227
 Alpha virt. eigenvalues --    0.93506   0.94062   0.94924   0.95304   0.96238
 Alpha virt. eigenvalues --    0.97133   0.98289   0.98946   1.00433   1.03114
 Alpha virt. eigenvalues --    1.04102   1.06177   1.06531   1.07021   1.08802
 Alpha virt. eigenvalues --    1.08945   1.10688   1.12600   1.12962   1.14036
 Alpha virt. eigenvalues --    1.16863   1.18147   1.19005   1.19924   1.20520
 Alpha virt. eigenvalues --    1.24040   1.27405   1.29789   1.32363   1.40001
 Alpha virt. eigenvalues --    1.48013   1.50310   1.51958   1.53382   1.53887
 Alpha virt. eigenvalues --    1.54306   1.54501   1.55936   1.56935   1.57444
 Alpha virt. eigenvalues --    1.58294   1.60040   1.60283   1.60673   1.60892
 Alpha virt. eigenvalues --    1.64005   1.65358   1.65679   1.65761   1.67147
 Alpha virt. eigenvalues --    1.67851   1.68092   1.68951   1.71482   1.73886
 Alpha virt. eigenvalues --    1.76578   1.77479   1.79340   1.80828   1.81069
 Alpha virt. eigenvalues --    1.81474   1.81582   1.84270   1.85481   1.87376
 Alpha virt. eigenvalues --    1.89612   1.92439   1.95261   1.95500   1.96321
 Alpha virt. eigenvalues --    1.96945   1.97665   1.97940   1.98083   1.98902
 Alpha virt. eigenvalues --    1.99151   1.99575   2.01816   2.03427   2.04141
 Alpha virt. eigenvalues --    2.05062   2.06072   2.07301   2.08067   2.11255
 Alpha virt. eigenvalues --    2.12428   2.13573   2.15824   2.19452   2.21196
 Alpha virt. eigenvalues --    2.23286   2.27426   2.34000   2.34403   2.37202
 Alpha virt. eigenvalues --    2.39579   2.40584   2.43557   2.44470   2.45426
 Alpha virt. eigenvalues --    2.45672   2.46767   2.46864   2.48119   2.49223
 Alpha virt. eigenvalues --    2.51046   2.54889   2.63187   2.64491   2.65801
 Alpha virt. eigenvalues --    2.68138   2.68975   2.69687   2.70291   2.70363
 Alpha virt. eigenvalues --    2.70411   2.71470   2.71707   2.72758   2.72968
 Alpha virt. eigenvalues --    2.73722   2.73985   2.75276   2.76696   2.76967
 Alpha virt. eigenvalues --    2.78524   2.81384   2.83697   2.84865   2.88117
 Alpha virt. eigenvalues --    2.89271   2.90759   2.91503   2.93145   2.94983
 Alpha virt. eigenvalues --    2.95768   2.96961   2.97409   2.99783   3.00583
 Alpha virt. eigenvalues --    3.05850   3.09303   3.14733   3.17495   3.17756
 Alpha virt. eigenvalues --    3.20279   3.28310   3.29321   3.33571   3.38213
 Alpha virt. eigenvalues --    3.44033   3.44898   3.45014   3.46706   3.54831
 Alpha virt. eigenvalues --    3.55252   3.57994   3.59477   3.61138   3.65114
 Alpha virt. eigenvalues --    3.67281   3.75787   3.76413   3.97880   4.04050
 Alpha virt. eigenvalues --    4.04852   4.08248   4.08994   4.20733   4.21238
 Alpha virt. eigenvalues --    4.22474   4.24252   4.40551   4.67088   4.92370
 Alpha virt. eigenvalues --    4.92853  23.63236  23.72440  23.90331  24.02024
 Alpha virt. eigenvalues --   24.02477  24.03055  24.03991  24.13833  24.15091
 Alpha virt. eigenvalues --   24.15323  24.15698  24.24211  24.24778  24.26267
          Condensed to atoms (all electrons):
               1          2          3          4          5          6
     1  C   15.665809   2.395477  -2.783809  -3.288362  -5.166162  -2.331747
     2  C    2.395477  15.273140  -3.372530  -2.537837  -2.420824  -4.641673
     3  C   -2.783809  -3.372530  11.021199   3.409656   3.289861  -0.369470
     4  C   -3.288362  -2.537837   3.409656  10.648789  -0.363610   2.898406
     5  C   -5.166162  -2.420824   3.289861  -0.363610  23.025148  -0.388185
     6  C   -2.331747  -4.641673  -0.369470   2.898406  -0.388185  22.038306
     7  C    0.488835   1.453558  -2.843130  -1.153242 -10.299949  -0.141200
     8  C    1.441265   0.298572  -1.253444  -2.603822  -0.165152  -9.635628
     9  C   -0.670990   0.345663  -0.937287  -0.003279  -3.634523   0.218416
    10  C    0.321877  -0.758031  -0.033869  -0.863200   0.219874  -3.392412
    11  C   -1.110436  -0.233046   0.039828  -0.161073   1.193677   0.059572
    12  C   -0.233776  -1.098616  -0.142622   0.053156   0.066514   1.141076
    13  C    0.050432  -0.068200   0.054760  -0.233351   1.583118  -0.071628
    14  C   -0.061566   0.107630  -0.225981   0.041098  -0.073186   1.443661
    15  H    0.173684   0.172476   0.484370  -0.161315   0.488363  -0.472151
    16  H    0.190495   0.186813  -0.174925   0.466323  -0.493399   0.483142
    17  H   -0.412184  -0.141703   0.149992  -0.004160   1.131443  -0.100036
    18  H   -0.135630  -0.388184  -0.008120   0.135913  -0.101509   1.096569
    19  H   -0.125877   0.039820  -0.017341  -0.000386  -0.177399  -0.000529
    20  H    0.039732  -0.125115  -0.001486  -0.012204  -0.001218  -0.167372
    21  H    0.085081   0.017140  -0.031309  -0.005305  -0.212363   0.003877
    22  H    0.016594   0.077704  -0.005377  -0.028185   0.003976  -0.201850
    23  H    0.010919  -0.000973   0.004897  -0.004540   0.025703   0.001327
    24  H   -0.001254   0.011440  -0.004604   0.005337   0.001455   0.028054
    25  H    0.032881   0.001361   0.000547  -0.007102   0.017028  -0.001613
    26  H    0.001379   0.032522  -0.006969   0.000569  -0.001635   0.017000
               7          8          9         10         11         12
     1  C    0.488835   1.441265  -0.670990   0.321877  -1.110436  -0.233776
     2  C    1.453558   0.298572   0.345663  -0.758031  -0.233046  -1.098616
     3  C   -2.843130  -1.253444  -0.937287  -0.033869   0.039828  -0.142622
     4  C   -1.153242  -2.603822  -0.003279  -0.863200  -0.161073   0.053156
     5  C  -10.299949  -0.165152  -3.634523   0.219874   1.193677   0.066514
     6  C   -0.141200  -9.635628   0.218416  -3.392412   0.059572   1.141076
     7  C   17.063452   0.137323   3.456310  -0.065527  -0.412228  -0.074758
     8  C    0.137323  16.571183  -0.061157   3.310642  -0.072955  -0.402269
     9  C    3.456310  -0.061157   8.658153   0.003118  -0.449371  -0.007174
    10  C   -0.065527   3.310642   0.003118   8.578410  -0.006990  -0.433829
    11  C   -0.412228  -0.072955  -0.449371  -0.006990   6.934343  -0.004045
    12  C   -0.074758  -0.402269  -0.007174  -0.433829  -0.004045   6.912172
    13  C   -2.150309   0.029722  -0.704592   0.009638   0.297826   0.000336
    14  C    0.031134  -2.074997   0.009591  -0.664462   0.000293   0.288099
    15  H   -0.358961   0.140397  -0.096950   0.036498  -0.065045  -0.003590
    16  H    0.152295  -0.347297   0.040705  -0.093053  -0.005494  -0.067205
    17  H   -0.271094   0.057224  -0.183610   0.016600   0.051933   0.011127
    18  H    0.060030  -0.253808   0.016957  -0.175637   0.010405   0.049712
    19  H    0.559344   0.009783   0.077791   0.000980  -0.035576  -0.001519
    20  H    0.009753   0.545005   0.000965   0.075095  -0.001434  -0.034621
    21  H    0.124433  -0.002049   0.416091  -0.000551  -0.001729  -0.000557
    22  H   -0.002248   0.118263  -0.000556   0.413455  -0.000538  -0.001534
    23  H   -0.036244  -0.000903  -0.001137   0.000046   0.384512  -0.000066
    24  H   -0.000964  -0.039245   0.000048  -0.002083  -0.000066   0.385208
    25  H   -0.028569   0.001079  -0.052752   0.000222  -0.060417  -0.000012
    26  H    0.001081  -0.028086   0.000222  -0.052721  -0.000012  -0.059569
              13         14         15         16         17         18
     1  C    0.050432  -0.061566   0.173684   0.190495  -0.412184  -0.135630
     2  C   -0.068200   0.107630   0.172476   0.186813  -0.141703  -0.388184
     3  C    0.054760  -0.225981   0.484370  -0.174925   0.149992  -0.008120
     4  C   -0.233351   0.041098  -0.161315   0.466323  -0.004160   0.135913
     5  C    1.583118  -0.073186   0.488363  -0.493399   1.131443  -0.101509
     6  C   -0.071628   1.443661  -0.472151   0.483142  -0.100036   1.096569
     7  C   -2.150309   0.031134  -0.358961   0.152295  -0.271094   0.060030
     8  C    0.029722  -2.074997   0.140397  -0.347297   0.057224  -0.253808
     9  C   -0.704592   0.009591  -0.096950   0.040705  -0.183610   0.016957
    10  C    0.009638  -0.664462   0.036498  -0.093053   0.016600  -0.175637
    11  C    0.297826   0.000293  -0.065045  -0.005494   0.051933   0.010405
    12  C    0.000336   0.288099  -0.003590  -0.067205   0.011127   0.049712
    13  C    7.435979  -0.002547   0.022491  -0.027016   0.052707  -0.007199
    14  C   -0.002547   7.404605  -0.025725   0.021865  -0.007163   0.049581
    15  H    0.022491  -0.025725   0.730403  -0.036889   0.025109  -0.080360
    16  H   -0.027016   0.021865  -0.036889   0.733241  -0.081674   0.024958
    17  H    0.052707  -0.007163   0.025109  -0.081674   0.534224  -0.006565
    18  H   -0.007199   0.049581  -0.080360   0.024958  -0.006565   0.534077
    19  H   -0.010747   0.000541  -0.039059   0.003292  -0.004811   0.006609
    20  H    0.000539  -0.009238   0.003156  -0.038349   0.006521  -0.004666
    21  H   -0.102710   0.000292  -0.001660   0.007279  -0.020364   0.000331
    22  H    0.000293  -0.099017   0.007179  -0.001616   0.000328  -0.020149
    23  H   -0.081075   0.000040   0.007027  -0.000045   0.001199  -0.000417
    24  H    0.000040  -0.080599  -0.000050   0.007009  -0.000416   0.001242
    25  H    0.427516  -0.000037   0.000030  -0.001194   0.001761  -0.000114
    26  H   -0.000037   0.425848  -0.001178   0.000051  -0.000115   0.001771
              19         20         21         22         23         24
     1  C   -0.125877   0.039732   0.085081   0.016594   0.010919  -0.001254
     2  C    0.039820  -0.125115   0.017140   0.077704  -0.000973   0.011440
     3  C   -0.017341  -0.001486  -0.031309  -0.005377   0.004897  -0.004604
     4  C   -0.000386  -0.012204  -0.005305  -0.028185  -0.004540   0.005337
     5  C   -0.177399  -0.001218  -0.212363   0.003976   0.025703   0.001455
     6  C   -0.000529  -0.167372   0.003877  -0.201850   0.001327   0.028054
     7  C    0.559344   0.009753   0.124433  -0.002248  -0.036244  -0.000964
     8  C    0.009783   0.545005  -0.002049   0.118263  -0.000903  -0.039245
     9  C    0.077791   0.000965   0.416091  -0.000556  -0.001137   0.000048
    10  C    0.000980   0.075095  -0.000551   0.413455   0.000046  -0.002083
    11  C   -0.035576  -0.001434  -0.001729  -0.000538   0.384512  -0.000066
    12  C   -0.001519  -0.034621  -0.000557  -0.001534  -0.000066   0.385208
    13  C   -0.010747   0.000539  -0.102710   0.000293  -0.081075   0.000040
    14  C    0.000541  -0.009238   0.000292  -0.099017   0.000040  -0.080599
    15  H   -0.039059   0.003156  -0.001660   0.007179   0.007027  -0.000050
    16  H    0.003292  -0.038349   0.007279  -0.001616  -0.000045   0.007009
    17  H   -0.004811   0.006521  -0.020364   0.000328   0.001199  -0.000416
    18  H    0.006609  -0.004666   0.000331  -0.020149  -0.000417   0.001242
    19  H    0.444542   0.000372   0.001607  -0.000078  -0.012462  -0.000020
    20  H    0.000372   0.445226  -0.000069   0.001550  -0.000018  -0.012631
    21  H    0.001607  -0.000069   0.423059  -0.000010   0.001271   0.000000
    22  H   -0.000078   0.001550  -0.000010   0.422687   0.000001   0.001198
    23  H   -0.012462  -0.000018   0.001271   0.000001   0.425085   0.000000
    24  H   -0.000020  -0.012631   0.000000   0.001198   0.000000   0.425158
    25  H    0.001173   0.000061  -0.007336   0.000006  -0.009723   0.000000
    26  H    0.000060   0.001161   0.000006  -0.007147   0.000000  -0.009509
              25         26
     1  C    0.032881   0.001379
     2  C    0.001361   0.032522
     3  C    0.000547  -0.006969
     4  C   -0.007102   0.000569
     5  C    0.017028  -0.001635
     6  C   -0.001613   0.017000
     7  C   -0.028569   0.001081
     8  C    0.001079  -0.028086
     9  C   -0.052752   0.000222
    10  C    0.000222  -0.052721
    11  C   -0.060417  -0.000012
    12  C   -0.000012  -0.059569
    13  C    0.427516  -0.000037
    14  C   -0.000037   0.425848
    15  H    0.000030  -0.001178
    16  H   -0.001194   0.000051
    17  H    0.001761  -0.000115
    18  H   -0.000114   0.001771
    19  H    0.001173   0.000060
    20  H    0.000061   0.001161
    21  H   -0.007336   0.000006
    22  H    0.000006  -0.007147
    23  H   -0.009723   0.000000
    24  H    0.000000  -0.009509
    25  H    0.423608  -0.000000
    26  H   -0.000000   0.423722
 Mulliken charges:
               1
     1  C    1.407331
     2  C    1.373416
     3  C   -0.242838
     4  C   -0.228276
     5  C   -1.547048
     6  C   -1.513913
     7  C    0.300875
     8  C    0.280354
     9  C   -0.440653
    10  C   -0.444091
    11  C   -0.351935
    12  C   -0.341640
    13  C   -0.505988
    14  C   -0.499763
    15  H    0.051750
    16  H    0.050688
    17  H    0.193725
    18  H    0.194204
    19  H    0.279891
    20  H    0.279282
    21  H    0.305543
    22  H    0.305069
    23  H    0.285581
    24  H    0.285253
    25  H    0.261597
    26  H    0.261586
 Sum of Mulliken charges =  -0.00000
 Mulliken charges with hydrogens summed into heavy atoms:
               1
     1  C    1.407331
     2  C    1.373416
     3  C   -0.191088
     4  C   -0.177588
     5  C   -1.353323
     6  C   -1.319709
     7  C    0.580766
     8  C    0.559636
     9  C   -0.135109
    10  C   -0.139022
    11  C   -0.066354
    12  C   -0.056387
    13  C   -0.244391
    14  C   -0.238176
 Electronic spatial extent (au):  <R**2>=           4215.2026
 Charge=             -0.0000 electrons
 Dipole moment (field-independent basis, Debye):
    X=              0.0355    Y=              0.0039    Z=              0.0117  Tot=              0.0376
 Quadrupole moment (field-independent basis, Debye-Ang):
   XX=            -73.1629   YY=            -74.1694   ZZ=            -90.0416
   XY=             -0.0544   XZ=              0.0000   YZ=             -0.0139
 Traceless Quadrupole moment (field-independent basis, Debye-Ang):
   XX=              5.9617   YY=              4.9552   ZZ=            -10.9170
   XY=             -0.0544   XZ=              0.0000   YZ=             -0.0139
 Octapole moment (field-independent basis, Debye-Ang**2):
  XXX=              0.1074  YYY=              0.0746  ZZZ=              0.1659  XYY=              0.1379
  XXY=              0.0683  XXZ=             -5.6744  XZZ=              0.1289  YZZ=              0.0006
  YYZ=              0.2318  XYZ=            -19.1525
 Hexadecapole moment (field-independent basis, Debye-Ang**3):
 XXXX=          -4716.8515 YYYY=           -548.5273 ZZZZ=           -180.1476 XXXY=            -10.0912
 XXXZ=              0.0562 YYYX=             -1.3852 YYYZ=             -0.1055 ZZZX=             -0.0008
 ZZZY=             -0.0945 XXYY=           -895.3603 XXZZ=           -995.7576 YYZZ=           -126.4781
 XXYZ=              0.0910 YYXZ=             -0.0365 ZZXY=              1.3377
 N-N= 7.361178961724D+02 E-N=-2.724892066883D+03  KE= 5.379771530497D+02
 R6APFD:  NTU= -4 IXU= 1 FactS= 1.050
 Calling FoFJK, ICntrl=      2127 FMM=F ISym2X=0 I1Cent= 0 IOpClX= 0 NMat=1 NMatS=1 NMatT=0.
 ***** Axes restored to original set *****
 -------------------------------------------------------------------
 Center     Atomic                   Forces (Hartrees/Bohr)
 Number     Number              X              Y              Z
 -------------------------------------------------------------------
      1        6          -0.030030476   -0.001364659    0.000486425
      2        6           0.005755401    0.005316070    0.000594750
      3        6          -0.005429070   -0.012648650   -0.000410182
      4        6           0.016129953    0.011144102   -0.000681642
      5        6           0.024878915   -0.010491833    0.002982911
      6        6          -0.019595237    0.005902997    0.001524146
      7        6           0.017847009    0.001467706   -0.000140671
      8        6          -0.011225357    0.001130121    0.001309819
      9        6          -0.003117308    0.002960873   -0.001693249
     10        6           0.003965544   -0.004219266   -0.002126508
     11        6          -0.001837948   -0.002212068    0.000617704
     12        6           0.002964806    0.003191098    0.001025654
     13        6          -0.000457576    0.001390523   -0.000909567
     14        6           0.000296413   -0.001367049   -0.000943243
     15        1          -0.004762577    0.002534331   -0.001444678
     16        1           0.004739740   -0.002734554   -0.001463397
     17        1          -0.005467158    0.002482953    0.000077760
     18        1           0.005148532   -0.002426561    0.000160339
     19        1          -0.003880143    0.000421797    0.000174810
     20        1           0.003645419   -0.000372682    0.000182461
     21        1           0.000699812   -0.001606930    0.000734289
     22        1          -0.000467569    0.001555318    0.000728840
     23        1           0.001282731    0.001282045   -0.000561580
     24        1          -0.001069433   -0.001324678   -0.000565277
     25        1           0.001828893   -0.000102995    0.000160912
     26        1          -0.001843313    0.000091989    0.000179174
 -------------------------------------------------------------------
 Cartesian Forces:  Max     0.030030476 RMS     0.006625225

 GradGradGradGradGradGradGradGradGradGradGradGradGradGradGradGradGradGrad
 Berny optimization.
 FormGI is forming the generalized inverse of G from B-inverse, IUseBI=4.
 Internal  Forces:  Max     0.017204239 RMS     0.003748835
 Search for a local minimum.
 Step number   1 out of a maximum of  139
 All quantities printed in internal units (Hartrees-Bohrs-Radians)
 Mixed Optimization -- RFO/linear search
 Second derivative matrix not updated -- first step.
 ITU=  0
     Eigenvalues ---    0.01116   0.01367   0.01913   0.01923   0.01954
     Eigenvalues ---    0.02069   0.02156   0.02156   0.02156   0.02156
     Eigenvalues ---    0.02157   0.02157   0.02157   0.02157   0.02157
     Eigenvalues ---    0.02157   0.02157   0.02158   0.02182   0.02217
     Eigenvalues ---    0.02228   0.02267   0.02697   0.15995   0.15995
     Eigenvalues ---    0.15998   0.15999   0.16000   0.16000   0.16000
     Eigenvalues ---    0.16000   0.16000   0.16000   0.16000   0.16000
     Eigenvalues ---    0.22000   0.22000   0.22000   0.22000   0.22000
     Eigenvalues ---    0.22001   0.23486   0.23500   0.25000   0.25000
     Eigenvalues ---    0.35117   0.35192   0.35194   0.35205   0.35250
     Eigenvalues ---    0.35257   0.35268   0.35268   0.35271   0.35273
     Eigenvalues ---    0.35291   0.35319   0.35364   0.37652   0.42135
     Eigenvalues ---    0.42323   0.42325   0.42821   0.46473   0.46478
     Eigenvalues ---    0.46482   0.46483   0.46484   0.46489   0.47413
     Eigenvalues ---    0.47903   0.54171
 RFO step:  Lambda=-6.27138254D-03 EMin= 1.11583347D-02
 Linear search not attempted -- first point.
 Iteration  1 RMS(Cart)=  0.05039505 RMS(Int)=  0.00052177
 Iteration  2 RMS(Cart)=  0.00094785 RMS(Int)=  0.00010965
 Iteration  3 RMS(Cart)=  0.00000029 RMS(Int)=  0.00010965
 Variable       Old X    -DE/DX   Delta X   Delta X   Delta X     New X
                                 (Linear)    (Quad)   (Total)
    R1        2.78461   0.00272   0.00000   0.00756   0.00756   2.79216
    R2        2.61823   0.01329   0.00000   0.02830   0.02837   2.64660
    R3        2.61817   0.01073   0.00000   0.02294   0.02302   2.64119
    R4        2.74875   0.01353   0.00000   0.03534   0.03534   2.78409
    R5        2.63602   0.00611   0.00000   0.01340   0.01342   2.64944
    R6        2.63596   0.00334   0.00000   0.00740   0.00742   2.64338
    R7        2.55876  -0.01720   0.00000  -0.03140  -0.03140   2.52737
    R8        2.05362   0.00366   0.00000   0.01023   0.01023   2.06385
    R9        2.05344   0.00387   0.00000   0.01081   0.01081   2.06425
   R10        2.63588  -0.00135   0.00000  -0.00275  -0.00276   2.63312
   R11        2.05087   0.00147   0.00000   0.00407   0.00407   2.05495
   R12        2.63591  -0.00254   0.00000  -0.00528  -0.00529   2.63061
   R13        2.05204   0.00133   0.00000   0.00369   0.00369   2.05574
   R14        2.63591  -0.00053   0.00000  -0.00124  -0.00123   2.63468
   R15        2.05364   0.00163   0.00000   0.00456   0.00456   2.05819
   R16        2.63591  -0.00161   0.00000  -0.00353  -0.00353   2.63238
   R17        2.05485   0.00150   0.00000   0.00419   0.00419   2.05904
   R18        2.63576   0.00033   0.00000  -0.00025  -0.00033   2.63543
   R19        2.05260   0.00189   0.00000   0.00527   0.00527   2.05787
   R20        2.63578  -0.00008   0.00000  -0.00048  -0.00050   2.63528
   R21        2.05271   0.00176   0.00000   0.00491   0.00491   2.05762
   R22        2.63608  -0.00182   0.00000  -0.00494  -0.00501   2.63107
   R23        2.05238   0.00190   0.00000   0.00528   0.00528   2.05766
   R24        2.63601  -0.00226   0.00000  -0.00522  -0.00524   2.63078
   R25        2.05243   0.00179   0.00000   0.00499   0.00499   2.05742
   R26        2.05234   0.00182   0.00000   0.00507   0.00507   2.05741
   R27        2.05243   0.00183   0.00000   0.00511   0.00511   2.05753
    A1        2.08246   0.01342   0.00000   0.05095   0.05087   2.13333
    A2        2.08265  -0.00112   0.00000  -0.00578  -0.00586   2.07679
    A3        2.11807  -0.01230   0.00000  -0.04516  -0.04503   2.07304
    A4        2.09436   0.01103   0.00000   0.04263   0.04261   2.13698
    A5        2.09447  -0.00358   0.00000  -0.01438  -0.01440   2.08007
    A6        2.09435  -0.00745   0.00000  -0.02825  -0.02825   2.06610
    A7        2.18492   0.00162   0.00000   0.00705   0.00694   2.19185
    A8        1.99138   0.00330   0.00000   0.02098   0.02085   2.01224
    A9        2.10674  -0.00492   0.00000  -0.02848  -0.02859   2.07815
   A10        2.18531   0.00197   0.00000   0.00863   0.00854   2.19385
   A11        1.99529   0.00303   0.00000   0.01964   0.01954   2.01483
   A12        2.10241  -0.00501   0.00000  -0.02872  -0.02881   2.07360
   A13        2.08257   0.00424   0.00000   0.02023   0.02027   2.10285
   A14        2.15064  -0.00806   0.00000  -0.04586  -0.04588   2.10476
   A15        2.04971   0.00383   0.00000   0.02566   0.02563   2.07534
   A16        2.09445   0.00268   0.00000   0.01234   0.01232   2.10677
   A17        2.14130  -0.00698   0.00000  -0.04011  -0.04010   2.10120
   A18        2.04719   0.00430   0.00000   0.02777   0.02778   2.07497
   A19        2.08250   0.00544   0.00000   0.02482   0.02488   2.10737
   A20        2.12201  -0.00636   0.00000  -0.03433  -0.03438   2.08764
   A21        2.07868   0.00092   0.00000   0.00950   0.00945   2.08812
   A22        2.09439   0.00390   0.00000   0.01705   0.01704   2.11143
   A23        2.11338  -0.00539   0.00000  -0.02922  -0.02924   2.08415
   A24        2.07541   0.00149   0.00000   0.01215   0.01214   2.08755
   A25        2.09446   0.00176   0.00000   0.00502   0.00490   2.09936
   A26        2.09502  -0.00086   0.00000  -0.00237  -0.00232   2.09270
   A27        2.09369  -0.00091   0.00000  -0.00268  -0.00264   2.09106
   A28        2.09434   0.00143   0.00000   0.00526   0.00520   2.09955
   A29        2.09513  -0.00090   0.00000  -0.00373  -0.00371   2.09142
   A30        2.09370  -0.00054   0.00000  -0.00157  -0.00155   2.09215
   A31        2.09447   0.00123   0.00000   0.00194   0.00186   2.09632
   A32        2.09458  -0.00050   0.00000  -0.00031  -0.00026   2.09432
   A33        2.09414  -0.00072   0.00000  -0.00164  -0.00160   2.09254
   A34        2.09437   0.00088   0.00000   0.00214   0.00211   2.09648
   A35        2.09461  -0.00053   0.00000  -0.00158  -0.00157   2.09305
   A36        2.09420  -0.00036   0.00000  -0.00056  -0.00055   2.09366
   A37        2.09430  -0.00036   0.00000  -0.00685  -0.00705   2.08726
   A38        2.09446   0.00033   0.00000   0.00432   0.00440   2.09885
   A39        2.09443   0.00003   0.00000   0.00252   0.00260   2.09702
   A40        2.09447  -0.00144   0.00000  -0.00855  -0.00862   2.08585
   A41        2.09431   0.00088   0.00000   0.00520   0.00522   2.09952
   A42        2.09440   0.00057   0.00000   0.00334   0.00335   2.09775
    D1       -0.34924  -0.00052   0.00000  -0.02055  -0.02081  -0.37005
    D2        2.81058   0.00025   0.00000   0.00818   0.00830   2.81888
    D3        2.79210  -0.00032   0.00000  -0.01227  -0.01240   2.77970
    D4       -0.33127   0.00045   0.00000   0.01646   0.01672  -0.31455
    D5        3.14121  -0.00035   0.00000  -0.01101  -0.01089   3.13032
    D6       -0.02588  -0.00023   0.00000  -0.00929  -0.00918  -0.03506
    D7       -0.00012  -0.00056   0.00000  -0.01947  -0.01929  -0.01942
    D8        3.11597  -0.00043   0.00000  -0.01775  -0.01758   3.09839
    D9       -3.14111   0.00035   0.00000   0.01074   0.01091  -3.13019
   D10       -0.00128   0.00007   0.00000   0.00139   0.00158   0.00030
   D11        0.00023   0.00056   0.00000   0.01921   0.01904   0.01927
   D12        3.14005   0.00028   0.00000   0.00986   0.00971  -3.13342
   D13       -0.34901  -0.00048   0.00000  -0.01748  -0.01770  -0.36671
   D14        2.81264   0.00027   0.00000   0.00885   0.00898   2.82161
   D15        2.79202  -0.00025   0.00000  -0.00815  -0.00828   2.78374
   D16       -0.32952   0.00049   0.00000   0.01818   0.01840  -0.31112
   D17        3.14103  -0.00035   0.00000  -0.01157  -0.01142   3.12960
   D18       -0.02529  -0.00027   0.00000  -0.01104  -0.01090  -0.03619
   D19       -0.00000  -0.00058   0.00000  -0.02091  -0.02078  -0.02078
   D20        3.11687  -0.00050   0.00000  -0.02037  -0.02026   3.09661
   D21       -3.14103   0.00035   0.00000   0.01139   0.01156  -3.12946
   D22       -0.00100   0.00006   0.00000   0.00134   0.00156   0.00056
   D23        0.00000   0.00058   0.00000   0.02074   0.02063   0.02063
   D24        3.14003   0.00029   0.00000   0.01070   0.01062  -3.13254
   D25        3.12538   0.00024   0.00000   0.01434   0.01399   3.13936
   D26       -0.03742  -0.00045   0.00000  -0.01295  -0.01297  -0.05039
   D27       -0.03556  -0.00050   0.00000  -0.01565  -0.01563  -0.05120
   D28        3.08483  -0.00119   0.00000  -0.04295  -0.04259   3.04223
   D29       -0.00002   0.00021   0.00000   0.00767   0.00792   0.00790
   D30        3.13597   0.00001   0.00000   0.00097   0.00112   3.13709
   D31       -3.11758   0.00027   0.00000   0.00709   0.00728  -3.11030
   D32        0.01841   0.00007   0.00000   0.00039   0.00047   0.01889
   D33        0.00008   0.00022   0.00000   0.00829   0.00845   0.00853
   D34        3.13597   0.00001   0.00000   0.00101   0.00109   3.13707
   D35       -3.11810   0.00030   0.00000   0.00872   0.00888  -3.10922
   D36        0.01779   0.00009   0.00000   0.00144   0.00152   0.01932
   D37       -0.00019  -0.00021   0.00000  -0.00715  -0.00736  -0.00755
   D38        3.14139  -0.00018   0.00000  -0.00593  -0.00611   3.13528
   D39       -3.14006   0.00007   0.00000   0.00201   0.00202  -3.13804
   D40        0.00153   0.00010   0.00000   0.00323   0.00326   0.00479
   D41       -0.00008  -0.00022   0.00000  -0.00796  -0.00809  -0.00816
   D42        3.14150  -0.00018   0.00000  -0.00645  -0.00659   3.13491
   D43       -3.14014   0.00006   0.00000   0.00190   0.00198  -3.13816
   D44        0.00144   0.00010   0.00000   0.00341   0.00347   0.00492
   D45        0.00005   0.00012   0.00000   0.00399   0.00407   0.00413
   D46        3.14018  -0.00015   0.00000  -0.00548  -0.00554   3.13464
   D47       -3.13594   0.00032   0.00000   0.01069   0.01087  -3.12507
   D48        0.00418   0.00005   0.00000   0.00121   0.00126   0.00544
   D49       -0.00015   0.00013   0.00000   0.00449   0.00453   0.00438
   D50        3.14033  -0.00017   0.00000  -0.00601  -0.00605   3.13428
   D51       -3.13605   0.00035   0.00000   0.01178   0.01190  -3.12415
   D52        0.00443   0.00005   0.00000   0.00128   0.00132   0.00575
   D53        0.00005  -0.00013   0.00000  -0.00426  -0.00437  -0.00432
   D54       -3.14007   0.00015   0.00000   0.00522   0.00523  -3.13484
   D55       -3.14153  -0.00016   0.00000  -0.00548  -0.00562   3.13604
   D56        0.00153   0.00012   0.00000   0.00400   0.00398   0.00551
   D57        0.00015  -0.00013   0.00000  -0.00466  -0.00473  -0.00458
   D58       -3.14033   0.00017   0.00000   0.00584   0.00584  -3.13450
   D59       -3.14143  -0.00017   0.00000  -0.00616  -0.00623   3.13552
   D60        0.00128   0.00013   0.00000   0.00433   0.00434   0.00561
         Item               Value     Threshold  Converged?
 Maximum Force            0.017204     0.000450     NO 
 RMS     Force            0.003749     0.000300     NO 
 Maximum Displacement     0.158969     0.001800     NO 
 RMS     Displacement     0.049991     0.001200     NO 
 Predicted change in Energy=-3.235972D-03
 GradGradGradGradGradGradGradGradGradGradGradGradGradGradGradGradGradGrad

                          Input orientation:                          
 ---------------------------------------------------------------------
 Center     Atomic      Atomic             Coordinates (Angstroms)
 Number     Number       Type             X           Y           Z
 ---------------------------------------------------------------------
      1          6           0        1.934105    0.194808    0.019030
      2          6           0       -1.931797   -0.192682    0.018360
      3          6           0        0.481669    0.466063    0.018142
      4          6           0       -0.483024   -0.460257    0.016579
      5          6           0        2.465248   -1.028441    0.446829
      6          6           0       -2.470410    1.029049    0.446067
      7          6           0        2.810236    1.194732   -0.412235
      8          6           0       -2.810533   -1.192660   -0.411230
      9          6           0        3.840638   -1.250019    0.419734
     10          6           0       -3.844831    1.248324    0.419216
     11          6           0        4.186506    0.973409   -0.439242
     12          6           0       -4.186148   -0.975003   -0.438509
     13          6           0        4.705359   -0.250641   -0.025725
     14          6           0       -4.708273    0.247755   -0.025811
     15          1           0        0.204105    1.521341   -0.027870
     16          1           0       -0.200569   -1.514326   -0.032341
     17          1           0        1.813882   -1.812322    0.825983
     18          1           0       -1.820313    1.814138    0.826104
     19          1           0        2.412380    2.153974   -0.740582
     20          1           0       -2.410646   -2.151710   -0.739157
     21          1           0        4.243745   -2.203218    0.758542
     22          1           0       -4.248023    2.201088    0.758721
     23          1           0        4.857550    1.758979   -0.783058
     24          1           0       -4.854018   -1.763260   -0.781950
     25          1           0        5.780426   -0.421973   -0.040601
     26          1           0       -5.783763    0.416854   -0.040394
 ---------------------------------------------------------------------
                    Distance matrix (angstroms):
                    1          2          3          4          5
     1  C    0.000000
     2  C    3.885273   0.000000
     3  C    1.477549   2.501752   0.000000
     4  C    2.504322   1.473276   1.337425   0.000000
     5  C    1.400522   4.496230   2.520298   3.033193   0.000000
     6  C    4.503118   1.402022   3.035597   2.520356   5.347335
     7  C    1.397657   4.959557   2.477581   3.710584   2.408217
     8  C    4.962034   1.398814   3.711377   2.477243   5.347626
     9  C    2.425480   5.882182   3.793268   4.413651   1.393387
    10  C    5.887796   2.428350   4.414906   3.792507   6.708317
    11  C    2.426838   6.245222   3.767282   4.905882   2.784825
    12  C    6.247823   2.429579   4.906498   3.766323   6.710272
    13  C    2.807183   6.637555   4.284290   5.192788   2.417928
    14  C    6.642741   2.811540   5.194718   4.284367   7.301470
    15  H    2.180548   2.738994   1.092140   2.097821   3.440857
    16  H    2.735071   2.178638   2.095219   1.092354   2.751776
    17  H    2.166610   4.160000   2.760152   2.785497   1.087431
    18  H    4.167644   2.166150   2.787334   2.759809   5.156563
    19  H    2.155015   4.995465   2.674388   3.973772   3.397132
    20  H    4.995784   2.154279   3.973881   2.673551   5.142241
    21  H    3.410549   6.536623   4.671881   5.092227   2.154140
    22  H    6.541484   3.412210   5.092029   4.669983   7.456215
    23  H    3.411233   7.109605   4.632697   5.838336   3.873686
    24  H    7.110148   3.412709   5.837772   4.630448   7.457983
    25  H    3.895915   7.715856   5.372977   6.263828   3.405260
    26  H    7.721291   3.900337   6.265899   5.373119   8.388829
                    6          7          8          9         10
     6  C    0.000000
     7  C    5.352510   0.000000
     8  C    2.405542   6.106774   0.000000
     9  C    6.710005   2.780415   6.703124   0.000000
    10  C    1.392061   6.707019   2.778096   8.081345   0.000000
    11  C    6.715757   1.394214   7.324697   2.408546   8.081763
    12  C    2.782527   7.325151   1.392995   8.077221   2.407358
    13  C    7.304235   2.414536   7.584500   1.394608   8.691985
    14  C    2.416841   7.587758   2.413454   8.690553   1.394532
    15  H    2.760434   2.654492   4.074409   4.594035   4.082683
    16  H    3.442355   4.067956   2.656866   4.074995   4.595300
    17  H    5.154890   3.401218   4.826996   2.142186   6.446243
    18  H    1.087850   4.833129   3.398877   6.449849   2.141115
    19  H    5.149295   1.089149   6.211865   3.869550   6.427910
    20  H    3.394931   6.209925   1.089597   6.421420   3.867679
    21  H    7.458222   3.869332   7.221664   1.088979   8.800758
    22  H    2.152054   7.225158   3.866871   8.800652   1.088846
    23  H    7.466093   2.155778   8.224958   3.396304   8.799867
    24  H    3.871253   8.223576   2.153798   8.792298   3.395718
    25  H    8.391579   3.402040   8.633417   2.158783   9.779923
    26  H    3.404370   8.637140   3.401199   9.778511   2.159177
                   11         12         13         14         15
    11  C    0.000000
    12  C    8.596373   0.000000
    13  C    1.392301   8.930509   0.000000
    14  C    8.933901   1.392146   9.426816   0.000000
    15  H    4.040912   5.067019   4.837480   5.074789   0.000000
    16  H    5.059726   4.042361   5.066071   4.839873   3.062525
    17  H    3.871748   6.188732   3.394833   6.892604   3.799179
    18  H    6.195950   3.869848   6.897342   3.394057   2.216590
    19  H    2.152222   7.309058   3.398668   7.405962   2.405133
    20  H    7.306075   2.151147   7.400039   3.397850   4.564445
    21  H    3.395426   8.602589   2.154233   9.314564   5.550628
    22  H    8.607182   3.394811   9.316082   2.154723   4.571895
    23  H    1.088867   9.454197   2.152972   9.714020   4.720311
    24  H    9.451871   1.088739   9.707810   2.153409   6.077981
    25  H    2.155594   9.989833   1.088735  10.510069   5.905251
    26  H    9.993753   2.155953  10.510350   1.088800   6.088893
                   16         17         18         19         20
    16  H    0.000000
    17  H    2.209873   0.000000
    18  H    3.799891   5.134062   0.000000
    19  H    4.559116   4.306255   4.526112   0.000000
    20  H    2.406302   4.517908   4.304240   6.465331   0.000000
    21  H    4.566399   2.462028   7.274374   4.958467   6.821047
    22  H    5.550852   7.270398   2.459277   6.827232   4.956455
    23  H    6.071464   4.960556   6.869229   2.477232   8.253611
    24  H    4.720007   6.859209   4.958526   8.255118   2.474427
    25  H    6.079935   4.291562   7.970107   4.297582   8.400811
    26  H    5.907756   7.965178   4.290939   8.407415   4.296942
                   21         22         23         24         25
    21  H    0.000000
    22  H    9.565983   0.000000
    23  H    4.295613   9.245756   0.000000
    24  H    9.237747   4.296156  10.330572   0.000000
    25  H    2.484522  10.396593   2.481833  10.744303   0.000000
    26  H   10.394903   2.486076  10.751298   2.483391  11.594572
                   26
    26  H    0.000000
 Stoichiometry    C14H12
 Framework group  C1[X(C14H12)]
 Deg. of freedom    72
 Full point group                 C1      NOp   1
 Largest Abelian subgroup         C1      NOp   1
 Largest concise Abelian subgroup C1      NOp   1
                         Standard orientation:                         
 ---------------------------------------------------------------------
 Center     Atomic      Atomic             Coordinates (Angstroms)
 Number     Number       Type             X           Y           Z
 ---------------------------------------------------------------------
      1          6           0        1.933174    0.210657    0.016003
      2          6           0       -1.929363   -0.209046    0.015332
      3          6           0        0.478528    0.469796    0.015115
      4          6           0       -0.478411   -0.464534    0.013552
      5          6           0        2.474496   -1.008121    0.443802
      6          6           0       -2.478142    1.008153    0.443039
      7          6           0        2.800939    1.217851   -0.415262
      8          6           0       -2.799733   -1.216314   -0.414257
      9          6           0        3.851685   -1.218225    0.416707
     10          6           0       -3.854343    1.215963    0.416188
     11          6           0        4.179006    1.008008   -0.442270
     12          6           0       -4.177114   -1.010132   -0.441536
     13          6           0        4.708045   -0.211674   -0.028752
     14          6           0       -4.709414    0.208231   -0.028839
     15          1           0        0.192176    1.522723   -0.030897
     16          1           0       -0.187178   -1.516212   -0.035368
     17          1           0        1.829687   -1.797405    0.822956
     18          1           0       -1.834613    1.798634    0.823077
     19          1           0        2.395101    2.173743   -0.743609
     20          1           0       -2.391865   -2.171997   -0.742184
     21          1           0        4.262724   -2.168031    0.755514
     22          1           0       -4.265464    2.165333    0.755693
     23          1           0        4.843479    1.799144   -0.786086
     24          1           0       -4.838390   -1.803929   -0.784977
     25          1           0        5.784503   -0.374039   -0.043629
     26          1           0       -5.786277    0.368359   -0.043422
 ---------------------------------------------------------------------
 Rotational constants (GHZ):           2.7046009           0.2618400           0.2439377
 Standard basis: 6-311++G(d,p) (5D, 7F)
 There are   406 symmetry adapted cartesian basis functions of A   symmetry.
 There are   392 symmetry adapted basis functions of A   symmetry.
   392 basis functions,   612 primitive gaussians,   406 cartesian basis functions
    48 alpha electrons       48 beta electrons
       nuclear repulsion energy       732.6712930467 Hartrees.
 NAtoms=   26 NActive=   26 NUniq=   26 SFac= 1.00D+00 NAtFMM=   60 NAOKFM=F Big=F
 Integral buffers will be    131072 words long.
 Raffenetti 2 integral format.
 Two-electron integral symmetry is turned on.
 R6APFD:  NTU= -4 IXU= 1 FactS= 1.050
 Nuclear repulsion after empirical dispersion term =      732.6568916626 Hartrees.
 One-electron integrals computed using PRISM.
 NBasis=   392 RedAO= T EigKep=  2.02D-06  NBF=   392
 NBsUse=   388 1.00D-06 EigRej=  9.94D-07 NBFU=   388
 Initial guess from the checkpoint file:  "SLBE0073.chk"
 B after Tr=    -0.000000    0.000000   -0.000000
         Rot=    0.999997    0.000028    0.000008   -0.002483 Ang=   0.28 deg.
 ExpMin= 3.60D-02 ExpMax= 4.56D+03 ExpMxC= 6.82D+02 IAcc=3 IRadAn=         5 AccDes= 0.00D+00
 Harris functional with IExCor= 1009 and IRadAn=       5 diagonalized for initial guess.
 HarFok:  IExCor= 1009 AccDes= 0.00D+00 IRadAn=         5 IDoV= 1 UseB2=F ITyADJ=14
 ICtDFT=  3500011 ScaDFX=  1.000000  1.000000  1.000000  1.000000
 FoFCou: FMM=F IPFlag=           0 FMFlag=      100000 FMFlg1=           0
         NFxFlg=           0 DoJE=T BraDBF=F KetDBF=T FulRan=T
         wScrn=  0.000000 ICntrl=       500 IOpCl=  0 I1Cent=   200000004 NGrid=           0
         NMat0=    1 NMatS0=      1 NMatT0=    0 NMatD0=    1 NMtDS0=    0 NMtDT0=    0
 Petite list used in FoFCou.
 Requested convergence on RMS density matrix=1.00D-08 within  32 cycles.
 Requested convergence on MAX density matrix=1.00D-06.
 Requested convergence on             energy=1.00D-06.
 No special actions if energy rises.
 SCF Done:  E(RM08HX) =  -540.705341988     A.U. after   14 cycles
            NFock= 14  Conv=0.28D-08     -V/T= 2.0053
 QCSCF skips out because SCF is already converged.
 R6APFD:  NTU= -4 IXU= 1 FactS= 1.050
 Calling FoFJK, ICntrl=      2127 FMM=F ISym2X=0 I1Cent= 0 IOpClX= 0 NMat=1 NMatS=1 NMatT=0.
 ***** Axes restored to original set *****
 -------------------------------------------------------------------
 Center     Atomic                   Forces (Hartrees/Bohr)
 Number     Number              X              Y              Z
 -------------------------------------------------------------------
      1        6          -0.007746406   -0.000185719    0.000741427
      2        6           0.002928374    0.001065775    0.000818630
      3        6           0.004323095    0.000933950   -0.000518330
      4        6          -0.001955204   -0.001296498   -0.000474371
      5        6           0.006050652   -0.001293331   -0.000147072
      6        6          -0.003440650    0.000992895   -0.000074085
      7        6           0.004920526   -0.000118558   -0.000268833
      8        6          -0.002513999   -0.000517514   -0.000413544
      9        6          -0.002582826    0.000801858   -0.000243331
     10        6           0.001852345   -0.000768504   -0.000240902
     11        6          -0.001648997    0.000394385   -0.000113032
     12        6           0.000944575   -0.000203594   -0.000071869
     13        6           0.000070756    0.000176610   -0.000014572
     14        6          -0.000204364   -0.000161713   -0.000008681
     15        1          -0.000004582    0.000574114    0.000209328
     16        1          -0.000377362   -0.000546757    0.000164912
     17        1          -0.001829631    0.000318467    0.000238331
     18        1           0.001638185   -0.000316898    0.000137243
     19        1          -0.000977155    0.000270132    0.000110033
     20        1           0.000756641   -0.000162642    0.000124197
     21        1          -0.000471355   -0.000065797    0.000092087
     22        1           0.000341960    0.000107189    0.000085611
     23        1          -0.000371492    0.000236130   -0.000027232
     24        1           0.000240952   -0.000229665   -0.000033093
     25        1          -0.000154563   -0.000125027   -0.000029028
     26        1           0.000210525    0.000120712   -0.000043825
 -------------------------------------------------------------------
 Cartesian Forces:  Max     0.007746406 RMS     0.001615983

 GradGradGradGradGradGradGradGradGradGradGradGradGradGradGradGradGradGrad
 Berny optimization.
 Using GEDIIS/GDIIS optimizer.
 FormGI is forming the generalized inverse of G from B-inverse, IUseBI=4.
 Internal  Forces:  Max     0.004736397 RMS     0.000788679
 Search for a local minimum.
 Step number   2 out of a maximum of  139
 All quantities printed in internal units (Hartrees-Bohrs-Radians)
 Mixed Optimization -- En-DIIS/RFO-DIIS
 Update second derivatives using D2CorX and points    1    2
 DE= -3.22D-03 DEPred=-3.24D-03 R= 9.95D-01
 TightC=F SS=  1.41D+00  RLast= 1.79D-01 DXNew= 5.0454D-01 5.3748D-01
 Trust test= 9.95D-01 RLast= 1.79D-01 DXMaxT set to 5.05D-01
 ITU=  1  0
 Use linear search instead of GDIIS.
     Eigenvalues ---    0.01116   0.01367   0.01906   0.01909   0.01949
     Eigenvalues ---    0.02067   0.02154   0.02156   0.02156   0.02157
     Eigenvalues ---    0.02157   0.02157   0.02157   0.02157   0.02157
     Eigenvalues ---    0.02158   0.02158   0.02162   0.02182   0.02215
     Eigenvalues ---    0.02226   0.02263   0.02708   0.14420   0.15992
     Eigenvalues ---    0.15996   0.15998   0.15999   0.15999   0.15999
     Eigenvalues ---    0.15999   0.15999   0.16000   0.16000   0.16259
     Eigenvalues ---    0.21869   0.21999   0.22000   0.22000   0.22003
     Eigenvalues ---    0.22043   0.23176   0.23805   0.24990   0.25114
     Eigenvalues ---    0.34797   0.35123   0.35193   0.35200   0.35241
     Eigenvalues ---    0.35253   0.35261   0.35268   0.35269   0.35272
     Eigenvalues ---    0.35290   0.35357   0.35771   0.39265   0.42043
     Eigenvalues ---    0.42229   0.42536   0.42917   0.45900   0.46476
     Eigenvalues ---    0.46479   0.46483   0.46485   0.46619   0.47716
     Eigenvalues ---    0.48153   0.55500
 RFO step:  Lambda=-3.02229030D-04 EMin= 1.11603173D-02
 Quartic linear search produced a step of  0.03152.
 Iteration  1 RMS(Cart)=  0.01498774 RMS(Int)=  0.00005827
[...]
 0193902,-0.00025560,-0.00004648,0.00026799,0.00001106,-0.00181850,-0.0
 0299234,0.00182767,0.00002556,-0.00002229,-0.00003868,-0.09534116,0.09
 066685,-0.02767585,0.00003437,-0.00002865,-0.00000102,-0.00108951,-0.0
 0071492,0.00023058,-0.00000816,0.00002847,0.00000395,-0.00566464,0.028
 25135,-0.00952061,0.00000852,0.00000116,-0.00000520,-0.00575613,0.0002
 8801,0.00102578,0.00002829,-0.00000122,0.00000321,-0.00067861,0.000340
 05,0.00024624,0.00009736,0.00005927,0.00009712,0.00037673,-0.00098312,
 0.00030625,-0.00000638,0.00002282,0.00004116,0.09896388,0.01125951,-0.
 01576171,0.00593702,0.00000736,-0.00003492,0.00006243,0.00184287,0.000
 04714,-0.00162802,-0.00063381,0.00028863,-0.00009017,-0.00378187,-0.00
 110731,0.00299510,-0.00002174,-0.00001400,-0.00002703,0.09001198,-0.27
 034832,0.07570096,-0.00000912,-0.00002391,-0.00000086,-0.00093969,0.00
 033327,-0.00044854,0.00000445,0.00003450,-0.00000178,-0.00074352,-0.00
 064788,0.00164581,0.00000683,0.00000080,-0.00001890,0.00100268,0.00275
 496,0.00155472,0.00000529,-0.00000231,0.00000009,-0.00119392,0.0002642
 6,0.00020328,0.00014747,0.00012331,0.00010218,0.00059720,-0.00093097,0
 .00039038,-0.00001016,0.00000833,0.00003674,-0.09782284,0.28526225,-0.
 00414719,0.00838158,0.00102598,-0.00001582,-0.00002837,0.00015554,-0.0
 0131402,-0.00077225,-0.00342356,-0.00010413,-0.00029477,0.00002639,0.0
 0199430,0.00315115,0.00535802,0.00002428,0.00004804,0.00004500,-0.0275
 1845,0.07599872,-0.06161913,0.00001900,-0.00000691,-0.00000069,0.00019
 605,-0.00043000,-0.00104560,0.00000784,-0.00000959,-0.00001805,0.00111
 437,-0.00115692,0.00373166,-0.00001244,0.00000409,-0.00002563,0.000894
 70,0.00179246,0.00677269,-0.00000291,-0.00000798,-0.00000427,0.0006903
 6,-0.00042021,0.00022552,-0.00007208,-0.00010074,0.00005157,-0.0002802
 2,0.00039957,0.00004623,0.00001734,-0.00000145,-0.00001313,0.02899696,
 -0.08474758,0.05297041,-0.00005198,0.00004293,0.00000502,0.00988294,-0
 .01645388,-0.00540925,-0.00004669,0.00026791,-0.00001121,0.00093334,-0
 .00193839,0.00025714,0.00002555,-0.00002231,0.00003863,-0.00181879,-0.
 00299206,-0.00182879,0.00003439,-0.00002866,0.00000098,-0.09533346,0.0
 9066070,0.02766418,-0.00000814,0.00002850,-0.00000394,-0.00108962,-0.0
 0071482,-0.00023049,0.00000850,0.00000116,0.00000525,-0.00566306,0.028
 25173,0.00951906,0.00002831,-0.00000125,-0.00000322,-0.00575572,0.0002
 8897,-0.00102741,0.00009732,0.00005923,-0.00009724,-0.00067798,0.00034
 022,-0.00024662,-0.00000638,0.00002282,-0.00004116,0.00037677,-0.00098
 325,-0.00030620,-0.00000766,-0.00000001,-0.00000340,0.09895403,0.00000
 742,-0.00003496,-0.00006246,0.01125786,-0.01576173,-0.00593504,-0.0006
 3394,0.00028830,0.00009009,0.00184217,0.00004771,0.00162801,-0.0000217
 6,-0.00001398,0.00002701,-0.00378151,-0.00110688,-0.00299513,-0.000009
 13,-0.00002390,0.00000090,0.09000606,-0.27035964,-0.07568737,0.0000044
 6,0.00003451,0.00000178,-0.00093963,0.00033353,0.00044845,0.00000682,0
 .00000079,0.00001889,-0.00074290,-0.00065032,-0.00164691,0.00000530,-0
 .00000232,-0.00000008,0.00100372,0.00275486,-0.00155463,0.00014740,0.0
 0012318,-0.00010227,-0.00119353,0.00026392,-0.00020363,-0.00001015,0.0
 0000832,-0.00003673,0.00059702,-0.00093097,-0.00039029,0.,-0.00000384,
 -0.00001345,-0.09781651,0.28527587,0.00001580,0.00002854,0.00015549,0.
 00414729,-0.00838363,0.00102615,0.00010447,0.00029488,0.00002617,0.001
 31446,0.00077127,-0.00342251,-0.00002426,-0.00004805,0.00004503,-0.001
 99522,-0.00315135,0.00535749,-0.00001895,0.00000691,-0.00000066,0.0275
 0660,-0.07598571,-0.06161177,-0.00000785,0.00000955,-0.00001805,-0.000
 19611,0.00042983,-0.00104566,0.00001246,-0.00000407,-0.00002566,-0.001
 11515,0.00116037,0.00373293,0.00000290,0.00000800,-0.00000426,-0.00089
 646,-0.00179233,0.00677295,0.00007211,0.00010079,0.00005139,-0.0006905
 2,0.00042070,0.00022517,-0.00001733,0.00000145,-0.00001315,0.00028026,
 -0.00039966,0.00004617,0.00000339,0.00001344,0.00001507,-0.02898308,0.
 08473347,0.05296201,-0.00565016,0.00035886,0.00089871,0.00004887,-0.00
 006329,0.00000969,0.00018406,0.00141128,-0.00039182,-0.00000935,0.0000
 1655,0.00006499,-0.00599832,0.02821126,-0.00992111,-0.00003325,0.00001
 544,0.00000862,-0.00121683,-0.00077064,0.00030352,-0.00004613,0.000036
 28,0.00000873,-0.09583527,0.09072114,-0.02895347,0.00000738,-0.0000246
 2,-0.00000139,-0.00170882,-0.00319809,0.00190451,-0.00000413,-0.000002
 93,0.00000597,0.01130812,-0.01779421,0.00599754,-0.00003534,0.00000357
 ,-0.00000443,-0.00044537,0.00011428,-0.00002343,-0.00001707,-0.0000239
 4,-0.00002925,0.00051211,-0.00047286,-0.00025132,0.00001007,-0.0000165
 6,-0.00001835,0.00005936,0.00005092,-0.00010144,0.00000456,-0.00000179
 ,-0.00000714,0.09799048,0.00085265,0.00265736,0.00193553,-0.00005882,0
 .00001980,-0.00000348,-0.00021045,-0.00014447,0.00009529,0.00004732,-0
 .00002134,-0.00000081,-0.00091124,-0.00061382,0.00158283,0.00003032,-0
 .00000269,-0.00000701,-0.00070146,0.00049165,-0.00054052,0.00003788,-0
 .00001356,-0.00000513,0.09104069,-0.27105215,0.08013450,0.00000091,0.0
 0001367,0.00000214,-0.00381307,-0.00090488,0.00338831,-0.00000697,-0.0
 0000416,-0.00000590,0.01124582,-0.01456871,0.00580636,0.00003032,-0.00
 000884,0.00000419,0.00006062,-0.00002311,-0.00005669,-0.00002527,-0.00
 000743,0.00001892,0.00022548,0.00002946,-0.00164258,-0.00000573,0.0000
 0803,0.00000612,0.00004596,-0.00017138,-0.00031464,-0.00000636,-0.0000
 0206,0.00000201,-0.09791204,0.28515546,0.00112173,0.00157905,0.0072888
 7,0.00000641,0.00001117,0.00001781,-0.00010744,-0.00005439,0.00015980,
 -0.00003179,0.00000184,-0.00004939,0.00068403,-0.00054816,0.00365637,-
 0.00000397,-0.00000621,0.00000025,0.00058222,-0.00042111,-0.00100909,-
 0.00000456,0.00001815,-0.00000232,-0.02854378,0.08054858,-0.06568255,-
 0.00000332,0.00000162,-0.00001699,0.00189863,0.00344987,0.00580494,-0.
 00000261,-0.00000149,-0.00000388,-0.00511414,0.00765977,0.00095328,-0.
 00000448,-0.00000183,0.00000935,-0.00004898,-0.00003621,-0.00019477,-0
 .00004772,0.00002694,0.00003544,-0.00054307,-0.00169935,-0.00360882,0.
 00000089,-0.00000256,0.00000412,-0.00010102,-0.00027466,-0.00086834,0.
 00000019,-0.00000177,0.00000573,0.03069665,-0.08923892,0.05681961,0.00
 004888,-0.00006327,-0.00000971,-0.00564986,0.00035984,-0.00090009,-0.0
 0000935,0.00001656,-0.00006501,0.00018402,0.00141115,0.00039158,-0.000
 03325,0.00001544,-0.00000862,-0.00599641,0.02821164,0.00991963,-0.0000
 4614,0.00003628,-0.00000872,-0.00121686,-0.00077060,-0.00030352,0.0000
 0737,-0.00002462,0.00000140,-0.09582408,0.09071495,0.02894177,-0.00000
 412,-0.00000293,-0.00000597,-0.00170900,-0.00319765,-0.00190558,-0.000
 03535,0.00000357,0.00000442,0.01130759,-0.01779591,-0.00599676,-0.0000
 1706,-0.00002392,0.00002929,-0.00044533,0.00011429,0.00002338,0.000010
 07,-0.00001656,0.00001835,0.00051199,-0.00047314,0.00025190,0.00000455
 ,-0.00000179,0.00000714,0.00005936,0.00005087,0.00010156,-0.00000433,0
 .00000487,-0.00000028,0.09797803,-0.00005883,0.00001981,0.00000346,0.0
 0085364,0.00265714,-0.00193502,0.00004732,-0.00002136,0.00000086,-0.00
 021053,-0.00014456,-0.00009536,0.00003032,-0.00000270,0.00000701,-0.00
 091059,-0.00061628,-0.00158375,0.00003789,-0.00001355,0.00000515,-0.00
 070138,0.00049177,0.00054044,0.00000091,0.00001368,-0.00000214,0.09103
 400,-0.27107228,-0.08012504,-0.00000697,-0.00000417,0.00000588,-0.0038
 1267,-0.00090423,-0.00338860,0.00003033,-0.00000884,-0.00000417,0.0112
 4417,-0.01456851,-0.00580464,-0.00002530,-0.00000743,-0.00001892,0.000
 06063,-0.00002312,0.00005662,-0.00000573,0.00000803,-0.00000611,0.0002
 2531,0.00002950,0.00164239,-0.00000636,-0.00000206,-0.00000200,0.00004
 590,-0.00017139,0.00031465,0.00000488,-0.00000669,-0.00000106,-0.09790
 525,0.28517734,-0.00000636,-0.00001118,0.00001790,-0.00112345,-0.00157
 856,0.00728809,0.00003174,-0.00000186,-0.00004952,0.00010762,0.0000545
 2,0.00015991,0.00000397,0.00000621,0.00000025,-0.00068506,0.00055143,0
 .00365721,0.00000453,-0.00001816,-0.00000235,-0.00058220,0.00042109,-0
 .00100920,0.00000333,-0.00000163,-0.00001700,0.02853200,-0.08053921,-0
 .06567451,0.00000263,0.00000149,-0.00000387,-0.00189964,-0.00345002,0.
 00580500,0.00000447,0.00000183,0.00000934,0.00511440,-0.00766216,0.000
 95377,0.00004779,-0.00002694,0.00003542,0.00004902,0.00003615,-0.00019
 463,-0.00000090,0.00000255,0.00000412,0.00054359,0.00169901,-0.0036084
 6,-0.00000019,0.00000177,0.00000572,0.00010116,0.00027465,-0.00086838,
 0.00000028,0.00000106,0.00000194,-0.03068281,0.08922868,0.05681093,-0.
 00499297,0.00251771,0.00022355,0.00006244,-0.00013712,-0.00007275,-0.0
 0029545,-0.00142407,0.00049708,-0.00048526,0.00024035,-0.00000107,-0.0
 0062300,0.00108766,-0.00040851,-0.00003970,0.00000039,0.00000103,-0.01
 299044,-0.02449748,0.01009857,-0.00008836,0.00003886,0.00000617,0.0003
 9155,0.00291520,-0.00044796,0.00000238,-0.00001059,-0.00000742,-0.1625
 4852,-0.12317228,0.05448595,0.00000304,-0.00000944,0.00000501,0.010914
 22,0.00983093,-0.00406863,-0.00004035,0.00001110,-0.00000371,-0.000017
 38,0.00005213,-0.00000832,0.00001422,-0.00001773,0.00001137,0.00000602
 ,-0.00013217,-0.00003887,0.00001185,-0.00001148,-0.00000190,0.00050425
 ,0.00030550,-0.00047886,0.00000925,0.00000234,0.00000062,0.00036256,0.
 00055163,-0.00024192,-0.00001025,0.00000745,0.00000335,0.16933735,0.00
 194885,0.00228056,0.00177967,0.00005046,0.00000704,0.00001459,0.000161
 87,0.00018399,-0.00007748,0.00007115,-0.00003603,-0.00001878,0.0011048
 5,-0.00023967,-0.00043468,-0.00001607,-0.00000073,0.00000107,0.0047875
 2,0.00702774,-0.00173213,-0.00001485,0.00000565,-0.00000171,0.00350928
 ,-0.00317024,0.00350273,-0.00000175,-0.00000663,-0.00000915,-0.1233062
 0,-0.20362567,0.06910337,0.00000437,0.00000696,0.00000193,-0.01942710,
 -0.01409550,0.00788597,-0.00001823,0.00000570,0.00000151,-0.00000399,-
 0.00000426,-0.00000500,0.00000369,0.00000236,0.00000327,-0.00011857,-0
 .00012549,-0.00031200,0.00000240,-0.00000426,0.00000012,-0.00046959,0.
 00009747,-0.00142634,0.00000347,0.00000164,0.00000201,-0.00095920,-0.0
 0086530,0.00044299,-0.00000221,0.00000292,0.00000103,0.13239548,0.2124
 8700,0.00041366,0.00198513,0.00699274,0.00000302,-0.00000927,-0.000001
 41,-0.00008772,0.00011513,0.00009409,0.00003274,0.00001795,-0.00011469
 ,-0.00034971,-0.00053969,-0.00088371,0.00001049,0.00000953,-0.00000286
 ,-0.00057088,0.00079683,0.00312571,0.00000511,-0.00000716,0.00000155,-
 0.00050751,0.00355555,0.00624582,0.00000403,0.00000422,0.00000100,0.05
 458500,0.06899838,-0.06699477,-0.00000353,-0.00000288,-0.00000251,0.00
 621962,0.00537549,0.00113151,0.00000681,-0.00000441,0.00000200,0.00001
 625,-0.00002678,0.00000769,0.00001274,-0.00002339,-0.00001280,-0.00004
 944,-0.00034336,-0.00091770,-0.00000393,0.00000247,0.00000301,-0.00018
 884,-0.00150539,-0.00354909,-0.00000243,-0.00000210,0.00000023,0.00027
 874,0.00025939,-0.00004851,0.00000306,-0.00000218,-0.00000051,-0.05935
 770,-0.07725299,0.05839072,0.00006245,-0.00013707,0.00007286,-0.004992
 43,0.00251862,-0.00022532,-0.00048520,0.00024032,0.00000099,-0.0002954
 1,-0.00142403,-0.00049699,-0.00003970,0.00000039,-0.00000103,-0.000622
 93,0.00108763,0.00040856,-0.00008836,0.00003884,-0.00000617,-0.0129912
 4,-0.02449565,-0.01009996,0.00000238,-0.00001060,0.00000742,0.00039200
 ,0.00291530,0.00044696,0.00000305,-0.00000943,-0.00000501,-0.16256194,
 -0.12317017,-0.05450256,-0.00004036,0.00001110,0.00000370,0.01091361,0
 .00982917,0.00406879,0.00001423,-0.00001774,-0.00001139,-0.00001737,0.
 00005212,0.00000831,0.00001186,-0.00001148,0.00000190,0.00000597,-0.00
 013222,0.00003901,0.00000925,0.00000234,-0.00000061,0.00050422,0.00030
 532,0.00047949,-0.00001024,0.00000745,-0.00000335,0.00036254,0.0005515
 6,0.00024190,-0.00001310,-0.00000318,0.00000205,0.16935127,0.00005048,
 0.00000705,-0.00001463,0.00194977,0.00228017,-0.00177950,0.00007118,-0
 .00003600,0.00001877,0.00016185,0.00018413,0.00007758,-0.00001607,-0.0
 0000072,-0.00000106,0.00110484,-0.00023990,0.00043478,-0.00001485,0.00
 000564,0.00000170,0.00478925,0.00702969,0.00173352,-0.00000176,-0.0000
 0663,0.00000915,0.00350938,-0.00317101,-0.00350215,0.00000437,0.000006
 96,-0.00000192,-0.12330436,-0.20360384,-0.06911061,-0.00001823,0.00000
 570,-0.00000151,-0.01942860,-0.01409482,-0.00788826,0.00000370,0.00000
 235,-0.00000325,-0.00000399,-0.00000427,0.00000500,0.00000240,-0.00000
 426,-0.00000012,-0.00011860,-0.00012545,0.00031197,0.00000347,0.000001
 64,-0.00000201,-0.00046980,0.00009747,0.00142633,-0.00000221,0.0000029
 2,-0.00000103,-0.00095927,-0.00086529,-0.00044309,-0.00000317,-0.00000
 315,-0.00000015,0.13239281,0.21246361,-0.00000310,0.00000927,-0.000001
 37,-0.00041515,-0.00198481,0.00699306,-0.00003275,-0.00001796,-0.00011
 466,0.00008764,-0.00011533,0.00009409,-0.00001048,-0.00000955,-0.00000
 286,0.00034991,0.00053985,-0.00088353,-0.00000510,0.00000717,0.0000015
 1,0.00056877,-0.00079998,0.00312484,-0.00000403,-0.00000422,0.00000099
 ,0.00050636,-0.00355503,0.00624549,0.00000352,0.00000289,-0.00000250,-
 0.05460162,-0.06900588,-0.06700584,-0.00000681,0.00000440,0.00000200,-
 0.00621864,-0.00537305,0.00113145,-0.00001278,0.00002341,-0.00001287,-
 0.00001627,0.00002681,0.00000770,0.00000393,-0.00000247,0.00000301,0.0
 0004957,0.00034331,-0.00091768,0.00000243,0.00000210,0.00000023,0.0001
 8945,0.00150553,-0.00354946,-0.00000306,0.00000218,-0.00000051,-0.0002
 7870,-0.00025930,-0.00004849,-0.00000205,0.00000015,0.00000114,0.05937
 686,0.07726049,0.05840253,0.00073148,-0.00038846,-0.00006055,0.0000472
 2,0.00001572,-0.00002462,-0.00001853,0.00004271,-0.00005202,-0.0000379
 8,-0.00007149,-0.00000677,-0.00025440,-0.00336770,0.00189675,-0.000025
 42,0.00000671,0.00000872,0.00135618,0.00241140,-0.00035446,-0.00002218
 ,0.00000296,-0.00000005,-0.01383431,0.00628702,-0.00090933,0.00000309,
 -0.00000337,0.00000027,-0.00704720,-0.00130966,0.00128295,0.00000251,0
 .00000077,0.00000084,-0.33035503,0.04498153,0.00828944,-0.00001475,0.0
 0000162,0.00000001,0.00000431,0.00001074,-0.00000188,0.00001943,0.0000
 3514,0.00003204,-0.00078264,0.00030678,-0.00003711,0.00000721,-0.00000
 652,-0.00000803,-0.00046598,-0.00008894,0.00009240,0.00000681,0.000002
 98,0.00000317,0.00053055,-0.00053380,-0.00018720,-0.00000351,0.0000033
 1,0.00000110,0.00053078,0.00029990,-0.00047287,-0.00000514,-0.00000234
 ,-0.00000125,0.34963135,-0.00024425,-0.00148317,0.00012146,0.00002064,
 0.00002405,-0.00000198,-0.00011391,0.00001936,-0.00037703,-0.00003644,
 0.00007059,-0.00003994,-0.00279463,-0.00209924,0.00366048,-0.00001121,
 0.00000117,-0.00000744,0.00176987,-0.00394629,0.00388640,0.00000395,-0
 .00000894,0.00000295,-0.02290068,0.00813858,0.00003172,0.00000384,0.00
 000185,0.00001253,0.02798945,0.00090032,-0.00143632,0.00000167,0.00000
 444,-0.00000232,0.04495653,-0.06347262,0.00581892,-0.00000141,-0.00000
 007,-0.00000876,-0.00008599,0.00001175,0.00003463,0.00003390,0.0000353
 4,0.00006087,-0.00112280,0.00020381,0.00006821,-0.00000198,0.00000038,
 0.00000578,0.00141251,-0.00016815,-0.00003698,0.00000121,0.00000021,0.
 00000340,0.00029855,0.00003232,-0.00145143,-0.00000063,-0.00000007,-0.
 00000019,-0.00054142,0.00006777,-0.00140002,0.00000023,0.00000013,0.00
 000030,-0.04863751,0.06166685,0.00023608,0.00021499,-0.00119698,0.0000
 1249,-0.00004514,-0.00003033,-0.00042948,-0.00031659,-0.00088499,-0.00
 003550,0.00018265,0.00002494,0.00158706,0.00366190,0.00564330,0.000014
 42,0.00001377,-0.00000267,-0.00032028,0.00371864,0.00616527,-0.0000060
 8,-0.00000258,0.00000467,0.00978620,-0.00217053,0.00317082,0.00000689,
 -0.00001652,0.00001570,-0.00895051,0.00075463,0.00376977,0.00000096,0.
 00000492,-0.00000138,0.00811428,0.00592140,-0.03964544,-0.00000871,0.0
 0000255,-0.00001777,0.00003149,-0.00008378,0.00005849,-0.00002941,-0.0
 0004739,0.00012558,0.00055988,-0.00003552,0.00001697,0.00000066,-0.000
 00164,0.00000078,-0.00041668,0.00009188,0.00013577,-0.00000319,-0.0000
 0502,0.00000173,-0.00046902,-0.00142288,-0.00327236,0.00000272,0.00000
 026,0.00000003,-0.00019369,-0.00147084,-0.00346874,-0.00000067,-0.0000
 0067,0.00000009,-0.00949074,-0.00894687,0.02938463,0.00004722,0.000015
 72,0.00002462,0.00073144,-0.00038862,0.00006077,-0.00003796,-0.0000714
 1,0.00000681,-0.00001860,0.00004265,0.00005211,-0.00002542,0.00000671,
 -0.00000871,-0.00025451,-0.00336759,-0.00189763,-0.00002218,0.00000296
 ,0.00000006,0.00135642,0.00241125,0.00035368,0.00000308,-0.00000337,-0
 .00000028,-0.01383523,0.00628885,0.00090745,0.00000251,0.00000077,-0.0
 0000084,-0.00704526,-0.00130898,-0.00128389,-0.00001476,0.00000163,0.,
 -0.33034375,0.04500498,-0.00831959,0.00001942,0.00003512,-0.00003209,0
 .00000431,0.00001073,0.00000187,0.00000721,-0.00000652,0.00000803,-0.0
 0078266,0.00030690,0.00003700,0.00000681,0.00000298,-0.00000317,-0.000
 46588,-0.00008890,-0.00009248,-0.00000351,0.00000331,-0.00000110,0.000
 53049,-0.00053401,0.00018774,-0.00000514,-0.00000234,0.00000125,0.0005
 3063,0.00029976,0.00047337,-0.00000384,0.00000050,0.00000081,0.3496191
 6,0.00002063,0.00002404,0.00000198,-0.00024443,-0.00148303,-0.00012147
 ,-0.00003643,0.00007065,0.00003999,-0.00011405,0.00001940,0.00037701,-
 0.00001121,0.00000117,0.00000745,-0.00279441,-0.00209874,-0.00366066,0
 .00000396,-0.00000893,-0.00000297,0.00176982,-0.00394698,-0.00388588,0
 .00000385,0.00000185,-0.00001256,-0.02289891,0.00814019,-0.00003437,0.
 00000166,0.00000444,0.00000233,0.02798988,0.00089790,0.00143944,-0.000
 00141,-0.00000007,0.00000877,0.04498035,-0.06348013,-0.00581343,0.0000
 3388,0.00003529,-0.00006086,-0.00008596,0.00001171,-0.00003469,-0.0000
 0198,0.00000038,-0.00000578,-0.00112267,0.00020394,-0.00006839,0.00000
 121,0.00000021,-0.00000340,0.00141254,-0.00016829,0.00003719,-0.000000
 63,-0.00000007,0.00000019,0.00029829,0.00003233,0.00145152,0.00000023,
 0.00000013,-0.00000030,-0.00054166,0.00006788,0.00139974,0.00000050,-0
 .00000035,-0.00000164,-0.04866307,0.06167511,-0.00001248,0.00004515,-0
 .00003032,-0.00023621,-0.00021513,-0.00119696,0.00003553,-0.00018279,0
 .00002489,0.00042990,0.00031651,-0.00088494,-0.00001441,-0.00001377,-0
 .00000269,-0.00158794,-0.00366213,0.00564350,0.00000608,0.00000258,0.0
 0000470,0.00031951,-0.00371800,0.00616491,-0.00000690,0.00001652,0.000
 01573,-0.00978769,0.00217167,0.00317020,-0.00000095,-0.00000492,-0.000
 00140,0.00894848,-0.00075511,0.00377035,0.00000871,-0.00000254,-0.0000
 1777,-0.00814383,-0.00591613,-0.03964822,0.00002941,0.00004748,0.00012
 546,-0.00003151,0.00008387,0.00005855,-0.00000066,0.00000164,0.0000007
 8,-0.00056002,0.00003556,0.00001698,0.00000319,0.00000502,0.00000173,0
 .00041657,-0.00009192,0.00013586,-0.00000272,-0.00000026,0.00000003,0.
 00046959,0.00142289,-0.00327270,0.00000067,0.00000067,0.00000009,0.000
 19427,0.00147071,-0.00346838,-0.00000081,0.00000164,0.00000211,0.00952
 423,0.00894079,0.02938749\\-0.00000133,0.00000627,-0.00000307,0.000012
 76,0.00000361,0.00000105,0.00001101,-0.00001145,-0.00000001,-0.0000157
 0,0.00001124,0.00000044,-0.00000169,-0.00000300,0.00000015,0.00000327,
 -0.00000777,-0.00000185,-0.00000332,-0.00000060,0.00000113,-0.00001067
 ,0.00000148,-0.00000079,-0.00000642,-0.00000110,0.00000083,0.00000320,
 0.00000087,0.00000059,0.00000083,-0.00000338,0.00000091,0.00000696,-0.
 00000522,-0.00000136,0.00000081,0.00000869,-0.00000177,-0.00000064,-0.
 00000184,0.00000015,-0.00000827,0.00000392,-0.00000127,0.00000616,-0.0
 0000412,0.,0.00000384,0.00000043,0.00000222,-0.00000196,0.00000195,0.0
 0000203,0.00000015,-0.00000009,0.00000079,0.00000179,-0.00000065,0.000
 00031,0.00000336,0.00000133,-0.00000013,-0.00000347,-0.00000178,-0.000
 00034,0.00000094,0.00000244,0.00000039,-0.00000088,-0.00000150,0.00000
 048,0.00000073,0.00000014,-0.00000071,-0.00000146,0.00000014,-0.000000
 14\\\@


 E PUR SI MUOVE    -- GALILEO GALILEI
 Job cpu time:       0 days  3 hours 55 minutes 25.6 seconds.
 Elapsed time:       0 days  0 hours 14 minutes 46.7 seconds.
 File lengths (MBytes):  RWF=    345 Int=      0 D2E=      0 Chk=     14 Scr=      1
 Normal termination of Gaussian 16 at Fri Oct 10 01:38:53 2025.
