 Entering Gaussian System, Link 0=g16
 Input=STAC0072.gjf
 Output=STAC0072.log
 Initial command:
 /usr/local/g16/l1.exe "/dados_01/scratch/Gau-2604708.inp" -scrdir="/dados_01/scratch/"
 Entering Link 1 = /usr/local/g16/l1.exe PID=   2604709.
  
 Copyright (c) 1988-2017, Gaussian, Inc.  All Rights Reserved.
  
 This is part of the Gaussian(R) 16 program.  It is based on
 the Gaussian(R) 09 system (copyright 2009, Gaussian, Inc.),
 the Gaussian(R) 03 system (copyright 2003, Gaussian, Inc.),
 the Gaussian(R) 98 system (copyright 1998, Gaussian, Inc.),
 the Gaussian(R) 94 system (copyright 1995, Gaussian, Inc.),
 the Gaussian 92(TM) system (copyright 1992, Gaussian, Inc.),
 the Gaussian 90(TM) system (copyright 1990, Gaussian, Inc.),
 the Gaussian 88(TM) system (copyright 1988, Gaussian, Inc.),
 the Gaussian 86(TM) system (copyright 1986, Carnegie Mellon
 University), and the Gaussian 82(TM) system (copyright 1983,
 Carnegie Mellon University). Gaussian is a federally registered
 trademark of Gaussian, Inc.
  
 This software contains proprietary and confidential information,
 including trade secrets, belonging to Gaussian, Inc.
  
 This software is provided under written license and may be
 used, copied, transmitted, or stored only in accord with that
 written license.
  
 The following legend is applicable only to US Government
 contracts under FAR:
  
                    RESTRICTED RIGHTS LEGEND
  
 Use, reproduction and disclosure by the US Government is
 subject to restrictions as set forth in subparagraphs (a)
 and (c) of the Commercial Computer Software - Restricted
 Rights clause in FAR 52.227-19.
  
 Gaussian, Inc.
 340 Quinnipiac St., Bldg. 40, Wallingford CT 06492
  
  
 ---------------------------------------------------------------
 Warning -- This program may not be used in any manner that
 competes with the business of Gaussian, Inc. or will provide
 assistance to any competitor of Gaussian, Inc.  The licensee
 of this program is prohibited from giving any competitor of
 Gaussian, Inc. access to this program.  By using this program,
 the user acknowledges that Gaussian, Inc. is engaged in the
 business of creating and licensing software in the field of
 computational chemistry and represents and warrants to the
 licensee that it is not a competitor of Gaussian, Inc. and that
 it will not use this program in any manner prohibited above.
 ---------------------------------------------------------------
  

 Cite this work as:
 Gaussian 16, Revision B.01,
 M. J. Frisch, G. W. Trucks, H. B. Schlegel, G. E. Scuseria, 
 M. A. Robb, J. R. Cheeseman, G. Scalmani, V. Barone, 
 G. A. Petersson, H. Nakatsuji, X. Li, M. Caricato, A. V. Marenich, 
 J. Bloino, B. G. Janesko, R. Gomperts, B. Mennucci, H. P. Hratchian, 
 J. V. Ortiz, A. F. Izmaylov, J. L. Sonnenberg, D. Williams-Young, 
 F. Ding, F. Lipparini, F. Egidi, J. Goings, B. Peng, A. Petrone, 
 T. Henderson, D. Ranasinghe, V. G. Zakrzewski, J. Gao, N. Rega, 
 G. Zheng, W. Liang, M. Hada, M. Ehara, K. Toyota, R. Fukuda, 
 J. Hasegawa, M. Ishida, T. Nakajima, Y. Honda, O. Kitao, H. Nakai, 
 T. Vreven, K. Throssell, J. A. Montgomery, Jr., J. E. Peralta, 
 F. Ogliaro, M. J. Bearpark, J. J. Heyd, E. N. Brothers, K. N. Kudin, 
 V. N. Staroverov, T. A. Keith, R. Kobayashi, J. Normand, 
 K. Raghavachari, A. P. Rendell, J. C. Burant, S. S. Iyengar, 
 J. Tomasi, M. Cossi, J. M. Millam, M. Klene, C. Adamo, R. Cammi, 
 J. W. Ochterski, R. L. Martin, K. Morokuma, O. Farkas, 
 J. B. Foresman, and D. J. Fox, Gaussian, Inc., Wallingford CT, 2016.
 
 ******************************************
 Gaussian 16:  ES64L-G16RevB.01 20-Dec-2017
                10-Oct-2025 
 ******************************************
 %nprocs=16
 Will use up to   16 processors via shared memory.
 %mem=40GB
 %chk=STAC0072.chk
 ----------------------------------------------------------------------
 # opt freq=noraman M08HX/6-311++G** scf=xqc Empiricaldispersion=pfd In
 t(Grid=ultraFine)
 ----------------------------------------------------------------------
 1/18=20,19=15,26=4,38=1/1,3;
 2/9=110,12=2,17=6,18=5,40=1/2;
 3/5=4,6=6,7=1111,11=2,25=1,30=1,71=1,74=-74,75=-5,124=11/1,2,3;
 4//1;
 5/5=2,8=3,13=1,38=5/2,8;
 6/7=2,8=2,9=2,10=2,28=1/1;
 7//1,2,3,16;
 1/18=20,19=15,26=4/3(2);
 2/9=110/2;
 99//99;
 2/9=110/2;
 3/5=4,6=6,7=1111,11=2,25=1,30=1,71=1,74=-74,75=-5,124=11/1,2,3;
 4/5=5,16=3,69=1/1;
 5/5=2,8=3,13=1,38=5/2,8;
 7//1,2,3,16;
 1/18=20,19=15,26=4/3(-5);
 2/9=110/2;
 6/7=2,8=2,9=2,10=2,19=2,28=1/1;
 99/9=1/99;
 --------
 STAC0072
 --------
 Symbolic Z-matrix:
 Charge =  0 Multiplicity = 1
 O                     4.6922    0.118    -0.8798 
 O                     3.6927   -0.29      1.1236 
 C                    -1.5705    2.6532    0.0195 
 C                    -0.1642    2.6439   -0.5844 
 C                    -2.6068    2.1382   -0.9824 
 C                     0.2613   -2.9987    0.2321 
 C                    -1.0893   -2.4391   -0.2258 
 C                     1.4968   -2.2589   -0.2907 
 C                     0.8673    3.2005    0.398 
 C                    -4.0388    2.1544   -0.4319 
 C                    -2.286    -3.2475    0.2891 
 C                     2.8464   -2.8515    0.1231 
 C                     2.2658    3.2229   -0.2182 
 C                    -4.2806    1.2319    0.7648 
 C                    -3.6239   -2.7284   -0.2417 
 C                     4.0409   -2.1032   -0.4656 
 C                     3.2997    3.7481    0.7648 
 C                    -4.0518   -0.1789    0.4255 
 C                    -3.8631   -1.3284    0.1333 
 C                     4.1121   -0.6866    0.0466 
 H                    -1.5696    2.0294    0.9199 
 H                    -1.8348    3.6718    0.3282 
 H                    -0.1557    3.2441   -1.5024 
 H                     0.109     1.6192   -0.865 
 H                    -2.5797    2.7717   -1.878 
 H                    -2.3376    1.1278   -1.3114 
 H                     0.329    -4.0488   -0.0792 
 H                     0.2908   -2.9988    1.329 
 H                    -1.1118   -2.4212   -1.3224 
 H                    -1.1605   -1.3981    0.1104 
 H                     1.4467   -2.2359   -1.3869 
 H                     1.4305   -1.2158    0.0405 
 H                     0.5824    4.2167    0.6963 
 H                     0.8751    2.5868    1.3071 
 H                    -4.2998    3.1804   -0.1442 
 H                    -4.7217    1.876    -1.2452 
 H                    -2.1731   -4.297    -0.0084 
 H                    -2.2894   -3.2249    1.3862 
 H                     2.8926   -3.8965   -0.2064 
 H                     2.9142   -2.8627    1.2179 
 H                     2.5486    2.2121   -0.533 
 H                     2.2678    3.8538   -1.1146 
 H                    -3.653     1.5235    1.6131 
 H                    -5.3192    1.3544    1.0948 
 H                    -4.4319   -3.3561    0.1513 
 H                    -3.6486   -2.8257   -1.3334 
 H                     3.9582   -2.0926   -1.5584 
 H                     4.9744   -2.6071   -0.1943 
 H                     3.0614    4.7699    1.0767 
 H                     4.2918    3.7559    0.3026 
 H                     3.3468    3.1172    1.6583 
 H                     4.7445    1.0489   -0.5748 
 

 GradGradGradGradGradGradGradGradGradGradGradGradGradGradGradGradGradGrad
 Berny optimization.
 Initialization pass.
                           ----------------------------
                           !    Initial Parameters    !
                           ! (Angstroms and Degrees)  !
 --------------------------                            --------------------------
 ! Name  Definition              Value          Derivative Info.                !
 --------------------------------------------------------------------------------
 ! R1    R(1,20)                 1.3572         estimate D2E/DX2                !
 ! R2    R(1,52)                 0.981          estimate D2E/DX2                !
 ! R3    R(2,20)                 1.2219         estimate D2E/DX2                !
 ! R4    R(3,4)                  1.5305         estimate D2E/DX2                !
 ! R5    R(3,5)                  1.5307         estimate D2E/DX2                !
 ! R6    R(3,21)                 1.0954         estimate D2E/DX2                !
 ! R7    R(3,22)                 1.0967         estimate D2E/DX2                !
 ! R8    R(4,9)                  1.5293         estimate D2E/DX2                !
 ! R9    R(4,23)                 1.0968         estimate D2E/DX2                !
 ! R10   R(4,24)                 1.097          estimate D2E/DX2                !
 ! R11   R(5,10)                 1.5343         estimate D2E/DX2                !
 ! R12   R(5,25)                 1.0973         estimate D2E/DX2                !
 ! R13   R(5,26)                 1.0962         estimate D2E/DX2                !
 ! R14   R(6,7)                  1.532          estimate D2E/DX2                !
 ! R15   R(6,8)                  1.532          estimate D2E/DX2                !
 ! R16   R(6,27)                 1.0974         estimate D2E/DX2                !
 ! R17   R(6,28)                 1.0973         estimate D2E/DX2                !
 ! R18   R(7,11)                 1.5332         estimate D2E/DX2                !
 ! R19   R(7,29)                 1.097          estimate D2E/DX2                !
 ! R20   R(7,30)                 1.0963         estimate D2E/DX2                !
 ! R21   R(8,12)                 1.531          estimate D2E/DX2                !
 ! R22   R(8,31)                 1.0976         estimate D2E/DX2                !
 ! R23   R(8,32)                 1.0964         estimate D2E/DX2                !
 ! R24   R(9,13)                 1.5284         estimate D2E/DX2                !
 ! R25   R(9,33)                 1.0967         estimate D2E/DX2                !
 ! R26   R(9,34)                 1.0969         estimate D2E/DX2                !
 ! R27   R(10,14)                1.5302         estimate D2E/DX2                !
 ! R28   R(10,35)                1.0971         estimate D2E/DX2                !
 ! R29   R(10,36)                1.0979         estimate D2E/DX2                !
 ! R30   R(11,15)                1.5301         estimate D2E/DX2                !
 ! R31   R(11,37)                1.0967         estimate D2E/DX2                !
 ! R32   R(11,38)                1.0973         estimate D2E/DX2                !
 ! R33   R(12,16)                1.5275         estimate D2E/DX2                !
 ! R34   R(12,39)                1.0967         estimate D2E/DX2                !
 ! R35   R(12,40)                1.097          estimate D2E/DX2                !
 ! R36   R(13,17)                1.5202         estimate D2E/DX2                !
 ! R37   R(13,41)                1.0958         estimate D2E/DX2                !
 ! R38   R(13,42)                1.0962         estimate D2E/DX2                !
 ! R39   R(14,18)                1.469          estimate D2E/DX2                !
 ! R40   R(14,43)                1.0948         estimate D2E/DX2                !
 ! R41   R(14,44)                1.0966         estimate D2E/DX2                !
 ! R42   R(15,19)                1.469          estimate D2E/DX2                !
 ! R43   R(15,45)                1.096          estimate D2E/DX2                !
 ! R44   R(15,46)                1.0963         estimate D2E/DX2                !
 ! R45   R(16,20)                1.508          estimate D2E/DX2                !
 ! R46   R(16,47)                1.096          estimate D2E/DX2                !
 ! R47   R(16,48)                1.095          estimate D2E/DX2                !
 ! R48   R(17,49)                1.0946         estimate D2E/DX2                !
 ! R49   R(17,50)                1.0945         estimate D2E/DX2                !
 ! R50   R(17,51)                1.0948         estimate D2E/DX2                !
 ! R51   R(18,19)                1.201          estimate D2E/DX2                !
 ! A1    A(20,1,52)            111.9083         estimate D2E/DX2                !
 ! A2    A(4,3,5)              111.2087         estimate D2E/DX2                !
 ! A3    A(4,3,21)             108.6705         estimate D2E/DX2                !
 ! A4    A(4,3,22)             109.7644         estimate D2E/DX2                !
 ! A5    A(5,3,21)             110.3034         estimate D2E/DX2                !
 ! A6    A(5,3,22)             109.4865         estimate D2E/DX2                !
 ! A7    A(21,3,22)            107.3229         estimate D2E/DX2                !
 ! A8    A(3,4,9)              111.3498         estimate D2E/DX2                !
 ! A9    A(3,4,23)             109.514          estimate D2E/DX2                !
 ! A10   A(3,4,24)             109.5992         estimate D2E/DX2                !
 ! A11   A(9,4,23)             109.4661         estimate D2E/DX2                !
 ! A12   A(9,4,24)             109.6516         estimate D2E/DX2                !
 ! A13   A(23,4,24)            107.1658         estimate D2E/DX2                !
 ! A14   A(3,5,10)             113.172          estimate D2E/DX2                !
 ! A15   A(3,5,25)             108.8601         estimate D2E/DX2                !
 ! A16   A(3,5,26)             109.896          estimate D2E/DX2                !
 ! A17   A(10,5,25)            108.0469         estimate D2E/DX2                !
 ! A18   A(10,5,26)            110.2816         estimate D2E/DX2                !
 ! A19   A(25,5,26)            106.3263         estimate D2E/DX2                !
 ! A20   A(7,6,8)              115.6317         estimate D2E/DX2                !
 ! A21   A(7,6,27)             108.6114         estimate D2E/DX2                !
 ! A22   A(7,6,28)             108.8155         estimate D2E/DX2                !
 ! A23   A(8,6,27)             108.3932         estimate D2E/DX2                !
 ! A24   A(8,6,28)             108.632          estimate D2E/DX2                !
 ! A25   A(27,6,28)            106.3696         estimate D2E/DX2                !
 ! A26   A(6,7,11)             113.2745         estimate D2E/DX2                !
 ! A27   A(6,7,29)             108.8345         estimate D2E/DX2                !
 ! A28   A(6,7,30)             108.2077         estimate D2E/DX2                !
 ! A29   A(11,7,29)            109.1663         estimate D2E/DX2                !
 ! A30   A(11,7,30)            110.3038         estimate D2E/DX2                !
 ! A31   A(29,7,30)            106.8428         estimate D2E/DX2                !
 ! A32   A(6,8,12)             115.5798         estimate D2E/DX2                !
 ! A33   A(6,8,31)             108.3081         estimate D2E/DX2                !
 ! A34   A(6,8,32)             107.9122         estimate D2E/DX2                !
 ! A35   A(12,8,31)            108.56           estimate D2E/DX2                !
 ! A36   A(12,8,32)            109.8715         estimate D2E/DX2                !
 ! A37   A(31,8,32)            106.2003         estimate D2E/DX2                !
 ! A38   A(4,9,13)             111.3153         estimate D2E/DX2                !
 ! A39   A(4,9,33)             109.6779         estimate D2E/DX2                !
 ! A40   A(4,9,34)             109.4853         estimate D2E/DX2                !
 ! A41   A(13,9,33)            109.4979         estimate D2E/DX2                !
 ! A42   A(13,9,34)            109.6236         estimate D2E/DX2                !
 ! A43   A(33,9,34)            107.1476         estimate D2E/DX2                !
 ! A44   A(5,10,14)            114.9434         estimate D2E/DX2                !
 ! A45   A(5,10,35)            109.0273         estimate D2E/DX2                !
 ! A46   A(5,10,36)            108.185          estimate D2E/DX2                !
 ! A47   A(14,10,35)           108.7307         estimate D2E/DX2                !
 ! A48   A(14,10,36)           109.1581         estimate D2E/DX2                !
 ! A49   A(35,10,36)           106.4657         estimate D2E/DX2                !
 ! A50   A(7,11,15)            112.7741         estimate D2E/DX2                !
 ! A51   A(7,11,37)            109.4585         estimate D2E/DX2                !
 ! A52   A(7,11,38)            109.1061         estimate D2E/DX2                !
 ! A53   A(15,11,37)           108.6977         estimate D2E/DX2                !
 ! A54   A(15,11,38)           109.7024         estimate D2E/DX2                !
 ! A55   A(37,11,38)           106.9324         estimate D2E/DX2                !
 ! A56   A(8,12,16)            113.3009         estimate D2E/DX2                !
 ! A57   A(8,12,39)            108.9512         estimate D2E/DX2                !
 ! A58   A(8,12,40)            109.1593         estimate D2E/DX2                !
 ! A59   A(16,12,39)           108.5452         estimate D2E/DX2                !
 ! A60   A(16,12,40)           109.9564         estimate D2E/DX2                !
 ! A61   A(39,12,40)           106.7099         estimate D2E/DX2                !
 ! A62   A(9,13,17)            111.5101         estimate D2E/DX2                !
 ! A63   A(9,13,41)            109.782          estimate D2E/DX2                !
 ! A64   A(9,13,42)            109.8646         estimate D2E/DX2                !
 ! A65   A(17,13,41)           109.2031         estimate D2E/DX2                !
 ! A66   A(17,13,42)           109.1897         estimate D2E/DX2                !
 ! A67   A(41,13,42)           107.1881         estimate D2E/DX2                !
 ! A68   A(10,14,18)           111.9464         estimate D2E/DX2                !
 ! A69   A(10,14,43)           110.7823         estimate D2E/DX2                !
 ! A70   A(10,14,44)           108.5207         estimate D2E/DX2                !
 ! A71   A(18,14,43)           110.2123         estimate D2E/DX2                !
 ! A72   A(18,14,44)           108.9235         estimate D2E/DX2                !
 ! A73   A(43,14,44)           106.2606         estimate D2E/DX2                !
 ! A74   A(11,15,19)           112.1577         estimate D2E/DX2                !
 ! A75   A(11,15,45)           109.0211         estimate D2E/DX2                !
 ! A76   A(11,15,46)           109.5749         estimate D2E/DX2                !
 ! A77   A(19,15,45)           109.5259         estimate D2E/DX2                !
 ! A78   A(19,15,46)           109.5803         estimate D2E/DX2                !
 ! A79   A(45,15,46)           106.8351         estimate D2E/DX2                !
 ! A80   A(12,16,20)           111.4812         estimate D2E/DX2                !
 ! A81   A(12,16,47)           109.2692         estimate D2E/DX2                !
 ! A82   A(12,16,48)           110.2271         estimate D2E/DX2                !
 ! A83   A(20,16,47)           109.4595         estimate D2E/DX2                !
 ! A84   A(20,16,48)           107.9321         estimate D2E/DX2                !
 ! A85   A(47,16,48)           108.4112         estimate D2E/DX2                !
 ! A86   A(13,17,49)           111.0197         estimate D2E/DX2                !
 ! A87   A(13,17,50)           110.2347         estimate D2E/DX2                !
 ! A88   A(13,17,51)           110.9709         estimate D2E/DX2                !
 ! A89   A(49,17,50)           108.1202         estimate D2E/DX2                !
 ! A90   A(49,17,51)           108.3461         estimate D2E/DX2                !
 ! A91   A(50,17,51)           108.0443         estimate D2E/DX2                !
 ! A92   A(1,20,2)             123.7721         estimate D2E/DX2                !
 ! A93   A(1,20,16)            110.1955         estimate D2E/DX2                !
 ! A94   A(2,20,16)            126.0184         estimate D2E/DX2                !
 ! A95   L(14,18,19,1,-1)      179.8098         estimate D2E/DX2                !
 ! A96   L(15,19,18,1,-1)      179.5609         estimate D2E/DX2                !
 ! A97   L(14,18,19,1,-2)      180.7186         estimate D2E/DX2                !
 ! A98   L(15,19,18,1,-2)      179.3362         estimate D2E/DX2                !
 ! D1    D(52,1,20,2)            0.8091         estimate D2E/DX2                !
 ! D2    D(52,1,20,16)         179.5202         estimate D2E/DX2                !
 ! D3    D(5,3,4,9)            178.1504         estimate D2E/DX2                !
 ! D4    D(5,3,4,23)            56.9432         estimate D2E/DX2                !
 ! D5    D(5,3,4,24)           -60.3516         estimate D2E/DX2                !
 ! D6    D(21,3,4,9)           -60.2485         estimate D2E/DX2                !
 ! D7    D(21,3,4,23)          178.5442         estimate D2E/DX2                !
 ! D8    D(21,3,4,24)           61.2494         estimate D2E/DX2                !
 ! D9    D(22,3,4,9)            56.8414         estimate D2E/DX2                !
 ! D10   D(22,3,4,23)          -64.3659         estimate D2E/DX2                !
 ! D11   D(22,3,4,24)          178.3394         estimate D2E/DX2                !
 ! D12   D(4,3,5,10)          -178.8657         estimate D2E/DX2                !
 ! D13   D(4,3,5,25)           -58.7126         estimate D2E/DX2                !
 ! D14   D(4,3,5,26)            57.362          estimate D2E/DX2                !
 ! D15   D(21,3,5,10)           60.4903         estimate D2E/DX2                !
 ! D16   D(21,3,5,25)         -179.3566         estimate D2E/DX2                !
 ! D17   D(21,3,5,26)          -63.2819         estimate D2E/DX2                !
 ! D18   D(22,3,5,10)          -57.3942         estimate D2E/DX2                !
 ! D19   D(22,3,5,25)           62.7588         estimate D2E/DX2                !
 ! D20   D(22,3,5,26)          178.8335         estimate D2E/DX2                !
 ! D21   D(3,4,9,13)          -178.6            estimate D2E/DX2                !
 ! D22   D(3,4,9,33)           -57.2651         estimate D2E/DX2                !
 ! D23   D(3,4,9,34)            60.0367         estimate D2E/DX2                !
 ! D24   D(23,4,9,13)          -57.3648         estimate D2E/DX2                !
 ! D25   D(23,4,9,33)           63.9702         estimate D2E/DX2                !
 ! D26   D(23,4,9,34)         -178.728          estimate D2E/DX2                !
 ! D27   D(24,4,9,13)           59.9326         estimate D2E/DX2                !
 ! D28   D(24,4,9,33)         -178.7325         estimate D2E/DX2                !
 ! D29   D(24,4,9,34)          -61.4307         estimate D2E/DX2                !
 ! D30   D(3,5,10,14)          -63.8008         estimate D2E/DX2                !
 ! D31   D(3,5,10,35)           58.5445         estimate D2E/DX2                !
 ! D32   D(3,5,10,36)          173.9403         estimate D2E/DX2                !
 ! D33   D(25,5,10,14)         175.5834         estimate D2E/DX2                !
 ! D34   D(25,5,10,35)         -62.0714         estimate D2E/DX2                !
 ! D35   D(25,5,10,36)          53.3245         estimate D2E/DX2                !
 ! D36   D(26,5,10,14)          59.7598         estimate D2E/DX2                !
 ! D37   D(26,5,10,35)        -177.895          estimate D2E/DX2                !
 ! D38   D(26,5,10,36)         -62.4992         estimate D2E/DX2                !
 ! D39   D(8,6,7,11)           178.0311         estimate D2E/DX2                !
 ! D40   D(8,6,7,29)            56.4076         estimate D2E/DX2                !
 ! D41   D(8,6,7,30)           -59.3442         estimate D2E/DX2                !
 ! D42   D(27,6,7,11)           55.9672         estimate D2E/DX2                !
 ! D43   D(27,6,7,29)          -65.6563         estimate D2E/DX2                !
 ! D44   D(27,6,7,30)          178.5918         estimate D2E/DX2                !
 ! D45   D(28,6,7,11)          -59.4316         estimate D2E/DX2                !
 ! D46   D(28,6,7,29)          178.9449         estimate D2E/DX2                !
 ! D47   D(28,6,7,30)           63.193          estimate D2E/DX2                !
 ! D48   D(7,6,8,12)          -177.7155         estimate D2E/DX2                !
 ! D49   D(7,6,8,31)           -55.7043         estimate D2E/DX2                !
 ! D50   D(7,6,8,32)            58.8647         estimate D2E/DX2                !
 ! D51   D(27,6,8,12)          -55.5353         estimate D2E/DX2                !
 ! D52   D(27,6,8,31)           66.4759         estimate D2E/DX2                !
 ! D53   D(27,6,8,32)         -178.9551         estimate D2E/DX2                !
 ! D54   D(28,6,8,12)           59.6499         estimate D2E/DX2                !
 ! D55   D(28,6,8,31)         -178.3388         estimate D2E/DX2                !
 ! D56   D(28,6,8,32)          -63.7699         estimate D2E/DX2                !
 ! D57   D(6,7,11,15)         -176.6136         estimate D2E/DX2                !
 ! D58   D(6,7,11,37)          -55.4777         estimate D2E/DX2                !
 ! D59   D(6,7,11,38)           61.2196         estimate D2E/DX2                !
 ! D60   D(29,7,11,15)         -55.1763         estimate D2E/DX2                !
 ! D61   D(29,7,11,37)          65.9596         estimate D2E/DX2                !
 ! D62   D(29,7,11,38)        -177.3431         estimate D2E/DX2                !
 ! D63   D(30,7,11,15)          61.9318         estimate D2E/DX2                !
 ! D64   D(30,7,11,37)        -176.9323         estimate D2E/DX2                !
 ! D65   D(30,7,11,38)         -60.235          estimate D2E/DX2                !
 ! D66   D(6,8,12,16)          177.9948         estimate D2E/DX2                !
 ! D67   D(6,8,12,39)           57.0621         estimate D2E/DX2                !
 ! D68   D(6,8,12,40)          -59.1142         estimate D2E/DX2                !
 ! D69   D(31,8,12,16)          56.1182         estimate D2E/DX2                !
 ! D70   D(31,8,12,39)         -64.8145         estimate D2E/DX2                !
 ! D71   D(31,8,12,40)         179.0093         estimate D2E/DX2                !
 ! D72   D(32,8,12,16)         -59.6219         estimate D2E/DX2                !
 ! D73   D(32,8,12,39)         179.4454         estimate D2E/DX2                !
 ! D74   D(32,8,12,40)          63.2692         estimate D2E/DX2                !
 ! D75   D(4,9,13,17)         -178.8013         estimate D2E/DX2                !
 ! D76   D(4,9,13,41)          -57.6391         estimate D2E/DX2                !
 ! D77   D(4,9,13,42)           59.9972         estimate D2E/DX2                !
 ! D78   D(33,9,13,17)          59.7587         estimate D2E/DX2                !
 ! D79   D(33,9,13,41)        -179.079          estimate D2E/DX2                !
 ! D80   D(33,9,13,42)         -61.4427         estimate D2E/DX2                !
 ! D81   D(34,9,13,17)         -57.5188         estimate D2E/DX2                !
 ! D82   D(34,9,13,41)          63.6434         estimate D2E/DX2                !
 ! D83   D(34,9,13,42)        -178.7202         estimate D2E/DX2                !
 ! D84   D(5,10,14,18)         -61.9093         estimate D2E/DX2                !
 ! D85   D(5,10,14,43)          61.5493         estimate D2E/DX2                !
 ! D86   D(5,10,14,44)         177.844          estimate D2E/DX2                !
 ! D87   D(35,10,14,18)        175.5857         estimate D2E/DX2                !
 ! D88   D(35,10,14,43)        -60.9556         estimate D2E/DX2                !
 ! D89   D(35,10,14,44)         55.3391         estimate D2E/DX2                !
 ! D90   D(36,10,14,18)         59.8233         estimate D2E/DX2                !
 ! D91   D(36,10,14,43)       -176.718          estimate D2E/DX2                !
 ! D92   D(36,10,14,44)        -60.4234         estimate D2E/DX2                !
 ! D93   D(7,11,15,19)         -59.3233         estimate D2E/DX2                !
 ! D94   D(7,11,15,45)         179.2024         estimate D2E/DX2                !
 ! D95   D(7,11,15,46)          62.6048         estimate D2E/DX2                !
 ! D96   D(37,11,15,19)        179.1089         estimate D2E/DX2                !
 ! D97   D(37,11,15,45)         57.6347         estimate D2E/DX2                !
 ! D98   D(37,11,15,46)        -58.963          estimate D2E/DX2                !
 ! D99   D(38,11,15,19)         62.5073         estimate D2E/DX2                !
 ! D100  D(38,11,15,45)        -58.967          estimate D2E/DX2                !
 ! D101  D(38,11,15,46)       -175.5646         estimate D2E/DX2                !
 ! D102  D(8,12,16,20)          63.9711         estimate D2E/DX2                !
 ! D103  D(8,12,16,47)         -57.1487         estimate D2E/DX2                !
 ! D104  D(8,12,16,48)        -176.1861         estimate D2E/DX2                !
 ! D105  D(39,12,16,20)       -174.8673         estimate D2E/DX2                !
 ! D106  D(39,12,16,47)         64.0129         estimate D2E/DX2                !
 ! D107  D(39,12,16,48)        -55.0246         estimate D2E/DX2                !
 ! D108  D(40,12,16,20)        -58.4783         estimate D2E/DX2                !
 ! D109  D(40,12,16,47)       -179.5982         estimate D2E/DX2                !
 ! D110  D(40,12,16,48)         61.3644         estimate D2E/DX2                !
 ! D111  D(9,13,17,49)         -60.1752         estimate D2E/DX2                !
 ! D112  D(9,13,17,50)        -179.9599         estimate D2E/DX2                !
 ! D113  D(9,13,17,51)          60.3816         estimate D2E/DX2                !
 ! D114  D(41,13,17,49)        178.3259         estimate D2E/DX2                !
 ! D115  D(41,13,17,50)         58.5413         estimate D2E/DX2                !
 ! D116  D(41,13,17,51)        -61.1172         estimate D2E/DX2                !
 ! D117  D(42,13,17,49)         61.4184         estimate D2E/DX2                !
 ! D118  D(42,13,17,50)        -58.3663         estimate D2E/DX2                !
 ! D119  D(42,13,17,51)       -178.0247         estimate D2E/DX2                !
 ! D120  D(10,14,15,11)        103.4444         estimate D2E/DX2                !
 ! D121  D(10,14,15,45)       -134.8849         estimate D2E/DX2                !
 ! D122  D(10,14,15,46)        -18.0673         estimate D2E/DX2                !
 ! D123  D(43,14,15,11)        -20.1071         estimate D2E/DX2                !
 ! D124  D(43,14,15,45)        101.5636         estimate D2E/DX2                !
 ! D125  D(43,14,15,46)       -141.6188         estimate D2E/DX2                !
 ! D126  D(44,14,15,11)       -136.7721         estimate D2E/DX2                !
 ! D127  D(44,14,15,45)        -15.1014         estimate D2E/DX2                !
 ! D128  D(44,14,15,46)        101.7162         estimate D2E/DX2                !
 ! D129  D(12,16,20,1)        -150.6551         estimate D2E/DX2                !
 ! D130  D(12,16,20,2)          28.0203         estimate D2E/DX2                !
 ! D131  D(47,16,20,1)         -29.6462         estimate D2E/DX2                !
 ! D132  D(47,16,20,2)         149.0292         estimate D2E/DX2                !
 ! D133  D(48,16,20,1)          88.1554         estimate D2E/DX2                !
 ! D134  D(48,16,20,2)         -93.1693         estimate D2E/DX2                !
 --------------------------------------------------------------------------------
 Trust Radius=3.00D-01 FncErr=1.00D-07 GrdErr=1.00D-06 EigMax=2.50D+02 EigMin=1.00D-04
 Number of steps in this run=    293 maximum allowed number of steps=    312.
 GradGradGradGradGradGradGradGradGradGradGradGradGradGradGradGradGradGrad

 Stoichiometry    C18H32O2
 Framework group  C1[X(C18H32O2)]
 Deg. of freedom   150
 Full point group                 C1      NOp   1
 Largest Abelian subgroup         C1      NOp   1
 Largest concise Abelian subgroup C1      NOp   1
                         Standard orientation:                         
 ---------------------------------------------------------------------
 Center     Atomic      Atomic             Coordinates (Angstroms)
 Number     Number       Type             X           Y           Z
 ---------------------------------------------------------------------
      1          8           0       -4.591307    0.009409    0.878793
      2          8           0       -3.591097   -0.376959   -1.128537
      3          6           0        1.640589    2.619913   -0.019052
      4          6           0        0.235644    2.591596    0.587403
      5          6           0        2.684564    2.111537    0.978252
      6          6           0       -0.127583   -3.051191   -0.257392
      7          6           0        1.217477   -2.478699    0.200878
      8          6           0       -1.370367   -2.328116    0.271510
      9          6           0       -0.803965    3.141523   -0.390197
     10          6           0        4.115232    2.146770    0.425184
     11          6           0        2.422253   -3.270848   -0.320405
     12          6           0       -2.713969   -2.933821   -0.142833
     13          6           0       -2.201446    3.144929    0.228707
     14          6           0        4.365156    1.233224   -0.776704
     15          6           0        3.755212   -2.739372    0.210579
     16          6           0       -3.915725   -2.202121    0.451936
     17          6           0       -3.243100    3.663434   -0.749649
     18          6           0        4.152975   -0.181799   -0.444259
     19          6           0        3.977846   -1.334847   -0.157641
     20          6           0       -4.003921   -0.783806   -0.052820
     21          1           0        1.645019    2.000775   -0.922654
     22          1           0        1.892762    3.643011   -0.322986
     23          1           0        0.222115    3.186939    1.508500
     24          1           0       -0.025413    1.562442    0.863222
     25          1           0        2.652018    2.740082    1.877156
     26          1           0        2.427438    1.096479    1.302537
     27          1           0       -0.182808   -4.103575    0.048614
     28          1           0       -0.159182   -3.045992   -1.354221
     29          1           0        1.241873   -2.466177    1.297512
     30          1           0        1.276256   -1.435247   -0.130081
     31          1           0       -1.318430   -2.310180    1.367719
     32          1           0       -1.316501   -1.282646   -0.054429
     33          1           0       -0.531146    4.162401   -0.683781
     34          1           0       -0.806566    2.532451   -1.302433
     35          1           0        4.364061    3.177123    0.142294
     36          1           0        4.802793    1.871945    1.235768
     37          1           0        2.321799   -4.323073   -0.028112
     38          1           0        2.423296   -3.242578   -1.417378
     39          1           0       -2.747718   -3.980955    0.181359
     40          1           0       -2.783735   -2.940165   -1.237548
     41          1           0       -2.472193    2.129390    0.538815
     42          1           0       -2.208863    3.771154    1.128351
     43          1           0        3.732675    1.522054   -1.622322
     44          1           0        5.401670    1.369164   -1.107996
     45          1           0        4.569504   -3.355860   -0.187153
     46          1           0        3.783102   -2.841991    1.301715
     47          1           0       -3.831057   -2.196198    1.544620
     48          1           0       -4.843985   -2.715154    0.179775
     49          1           0       -3.016968    4.689454   -1.056718
     50          1           0       -4.234337    3.657632   -0.285573
     51          1           0       -3.284774    3.036639   -1.646302
     52          1           0       -4.654715    0.941211    0.578695
 ---------------------------------------------------------------------
 Rotational constants (GHZ):           0.2912869           0.1788587           0.1165522
 Standard basis: 6-311++G(d,p) (5D, 7F)
 There are   684 symmetry adapted cartesian basis functions of A   symmetry.
 There are   664 symmetry adapted basis functions of A   symmetry.
   664 basis functions,  1008 primitive gaussians,   684 cartesian basis functions
    78 alpha electrons       78 beta electrons
       nuclear repulsion energy      1548.3491557555 Hartrees.
 NAtoms=   52 NActive=   52 NUniq=   52 SFac= 1.00D+00 NAtFMM=   60 NAOKFM=F Big=F
 Integral buffers will be    131072 words long.
 Raffenetti 2 integral format.
 Two-electron integral symmetry is turned on.
 R6APFD:  NTU= -4 IXU= 1 FactS= 1.050
 Nuclear repulsion after empirical dispersion term =     1548.3061543694 Hartrees.
 One-electron integrals computed using PRISM.
 NBasis=   664 RedAO= T EigKep=  1.16D-06  NBF=   664
 NBsUse=   663 1.00D-06 EigRej=  1.35D-08 NBFU=   663
 ExpMin= 3.60D-02 ExpMax= 8.59D+03 ExpMxC= 1.30D+03 IAcc=3 IRadAn=         5 AccDes= 0.00D+00
 Harris functional with IExCor= 1009 and IRadAn=       5 diagonalized for initial guess.
 HarFok:  IExCor= 1009 AccDes= 0.00D+00 IRadAn=         5 IDoV= 1 UseB2=F ITyADJ=14
 ICtDFT=  3500011 ScaDFX=  1.000000  1.000000  1.000000  1.000000
 FoFCou: FMM=F IPFlag=           0 FMFlag=      100000 FMFlg1=           0
         NFxFlg=           0 DoJE=T BraDBF=F KetDBF=T FulRan=T
         wScrn=  0.000000 ICntrl=       500 IOpCl=  0 I1Cent=   200000004 NGrid=           0
         NMat0=    1 NMatS0=      1 NMatT0=    0 NMatD0=    1 NMtDS0=    0 NMtDT0=    0
 Petite list used in FoFCou.
 Requested convergence on RMS density matrix=1.00D-08 within  32 cycles.
 Requested convergence on MAX density matrix=1.00D-06.
 Requested convergence on             energy=1.00D-06.
 No special actions if energy rises.
 SCF Done:  E(RM08HX) =  -855.668632012     A.U. after   15 cycles
            NFock= 15  Conv=0.24D-08     -V/T= 2.0054
 QCSCF skips out because SCF is already converged.

 **********************************************************************

            Population analysis using the SCF Density.

 **********************************************************************

 Orbital symmetries:
       Occupied  (A) (A) (A) (A) (A) (A) (A) (A) (A) (A) (A) (A)
                 (A) (A) (A) (A) (A) (A) (A) (A) (A) (A) (A) (A)
                 (A) (A) (A) (A) (A) (A) (A) (A) (A) (A) (A) (A)
                 (A) (A) (A) (A) (A) (A) (A) (A) (A) (A) (A) (A)
                 (A) (A) (A) (A) (A) (A) (A) (A) (A) (A) (A) (A)
                 (A) (A) (A) (A) (A) (A) (A) (A) (A) (A) (A) (A)
                 (A) (A) (A) (A) (A) (A)
       Virtual   (A) (A) (A) (A) (A) (A) (A) (A) (A) (A) (A) (A)
                 (A) (A) (A) (A) (A) (A) (A) (A) (A) (A) (A) (A)
                 (A) (A) (A) (A) (A) (A) (A) (A) (A) (A) (A) (A)
                 (A) (A) (A) (A) (A) (A) (A) (A) (A) (A) (A) (A)
                 (A) (A) (A) (A) (A) (A) (A) (A) (A) (A) (A) (A)
                 (A) (A) (A) (A) (A) (A) (A) (A) (A) (A) (A) (A)
                 (A) (A) (A) (A) (A) (A) (A) (A) (A) (A) (A) (A)
                 (A) (A) (A) (A) (A) (A) (A) (A) (A) (A) (A) (A)
                 (A) (A) (A) (A) (A) (A) (A) (A) (A) (A) (A) (A)
                 (A) (A) (A) (A) (A) (A) (A) (A) (A) (A) (A) (A)
                 (A) (A) (A) (A) (A) (A) (A) (A) (A) (A) (A) (A)
                 (A) (A) (A) (A) (A) (A) (A) (A) (A) (A) (A) (A)
                 (A) (A) (A) (A) (A) (A) (A) (A) (A) (A) (A) (A)
                 (A) (A) (A) (A) (A) (A) (A) (A) (A) (A) (A) (A)
                 (A) (A) (A) (A) (A) (A) (A) (A) (A) (A) (A) (A)
                 (A) (A) (A) (A) (A) (A) (A) (A) (A) (A) (A) (A)
                 (A) (A) (A) (A) (A) (A) (A) (A) (A) (A) (A) (A)
                 (A) (A) (A) (A) (A) (A) (A) (A) (A) (A) (A) (A)
                 (A) (A) (A) (A) (A) (A) (A) (A) (A) (A) (A) (A)
                 (A) (A) (A) (A) (A) (A) (A) (A) (A) (A) (A) (A)
                 (A) (A) (A) (A) (A) (A) (A) (A) (A) (A) (A) (A)
                 (A) (A) (A) (A) (A) (A) (A) (A) (A) (A) (A) (A)
                 (A) (A) (A) (A) (A) (A) (A) (A) (A) (A) (A) (A)
                 (A) (A) (A) (A) (A) (A) (A) (A) (A) (A) (A) (A)
                 (A) (A) (A) (A) (A) (A) (A) (A) (A) (A) (A) (A)
                 (A) (A) (A) (A) (A) (A) (A) (A) (A) (A) (A) (A)
                 (A) (A) (A) (A) (A) (A) (A) (A) (A) (A) (A) (A)
                 (A) (A) (A) (A) (A) (A) (A) (A) (A) (A) (A) (A)
                 (A) (A) (A) (A) (A) (A) (A) (A) (A) (A) (A) (A)
                 (A) (A) (A) (A) (A) (A) (A) (A) (A) (A) (A) (A)
                 (A) (A) (A) (A) (A) (A) (A) (A) (A) (A) (A) (A)
                 (A) (A) (A) (A) (A) (A) (A) (A) (A) (A) (A) (A)
                 (A) (A) (A) (A) (A) (A) (A) (A) (A) (A) (A) (A)
                 (A) (A) (A) (A) (A) (A) (A) (A) (A) (A) (A) (A)
                 (A) (A) (A) (A) (A) (A) (A) (A) (A) (A) (A) (A)
                 (A) (A) (A) (A) (A) (A) (A) (A) (A) (A) (A) (A)
                 (A) (A) (A) (A) (A) (A) (A) (A) (A) (A) (A) (A)
                 (A) (A) (A) (A) (A) (A) (A) (A) (A) (A) (A) (A)
                 (A) (A) (A) (A) (A) (A) (A) (A) (A) (A) (A) (A)
                 (A) (A) (A) (A) (A) (A) (A) (A) (A) (A) (A) (A)
                 (A) (A) (A) (A) (A) (A) (A) (A) (A) (A) (A) (A)
                 (A) (A) (A) (A) (A) (A) (A) (A) (A) (A) (A) (A)
                 (A) (A) (A) (A) (A) (A) (A) (A) (A) (A) (A) (A)
                 (A) (A) (A) (A) (A) (A) (A) (A) (A) (A) (A) (A)
                 (A) (A) (A) (A) (A) (A) (A) (A) (A) (A) (A) (A)
                 (A) (A) (A) (A) (A) (A) (A) (A) (A) (A) (A) (A)
                 (A) (A) (A) (A) (A) (A) (A) (A) (A) (A) (A) (A)
                 (A) (A) (A) (A) (A) (A) (A) (A) (A) (A) (A) (A)
                 (A) (A) (A) (A) (A) (A) (A) (A) (A)
 The electronic state is 1-A.
 Alpha  occ. eigenvalues --  -19.66487 -19.60964 -10.67910 -10.54915 -10.54655
 Alpha  occ. eigenvalues --  -10.54428 -10.53223 -10.52857 -10.52530 -10.52305
 Alpha  occ. eigenvalues --  -10.52133 -10.52014 -10.51942 -10.51646 -10.51622
 Alpha  occ. eigenvalues --  -10.51609 -10.51572 -10.51531 -10.51340 -10.51111
 Alpha  occ. eigenvalues --   -1.23377  -1.13893  -0.93012  -0.92499  -0.91418
 Alpha  occ. eigenvalues --   -0.90382  -0.87544  -0.86329  -0.83085  -0.80887
 Alpha  occ. eigenvalues --   -0.78605  -0.75202  -0.73953  -0.70010  -0.68786
 Alpha  occ. eigenvalues --   -0.66620  -0.66130  -0.66014  -0.65158  -0.59335
 Alpha  occ. eigenvalues --   -0.57700  -0.56844  -0.56031  -0.55856  -0.54753
 Alpha  occ. eigenvalues --   -0.53531  -0.53104  -0.52081  -0.51700  -0.50272
 Alpha  occ. eigenvalues --   -0.49950  -0.49838  -0.48532  -0.48282  -0.47130
 Alpha  occ. eigenvalues --   -0.46715  -0.46114  -0.45662  -0.44514  -0.44060
 Alpha  occ. eigenvalues --   -0.42749  -0.42428  -0.41615  -0.41270  -0.40573
 Alpha  occ. eigenvalues --   -0.40404  -0.39630  -0.39595  -0.38794  -0.38561
 Alpha  occ. eigenvalues --   -0.38460  -0.38291  -0.38131  -0.38076  -0.36304
 Alpha  occ. eigenvalues --   -0.35557  -0.31142  -0.30950
 Alpha virt. eigenvalues --   -0.03170  -0.02607  -0.02380  -0.02050  -0.01493
 Alpha virt. eigenvalues --   -0.01189  -0.00949  -0.00543  -0.00291   0.00131
 Alpha virt. eigenvalues --    0.00485   0.01009   0.01537   0.01706   0.02097
 Alpha virt. eigenvalues --    0.02274   0.02444   0.02745   0.03128   0.03504
 Alpha virt. eigenvalues --    0.03923   0.04055   0.04363   0.04633   0.04880
 Alpha virt. eigenvalues --    0.05048   0.05383   0.06008   0.06195   0.06861
 Alpha virt. eigenvalues --    0.07202   0.07295   0.07676   0.07696   0.07992
 Alpha virt. eigenvalues --    0.08510   0.08614   0.09051   0.09313   0.09566
 Alpha virt. eigenvalues --    0.09680   0.10255   0.10402   0.10579   0.11045
 Alpha virt. eigenvalues --    0.11223   0.11397   0.11949   0.12005   0.12254
 Alpha virt. eigenvalues --    0.12522   0.12668   0.12787   0.12821   0.13116
 Alpha virt. eigenvalues --    0.13248   0.13411   0.13530   0.13803   0.14027
 Alpha virt. eigenvalues --    0.14272   0.14394   0.14597   0.14842   0.14952
 Alpha virt. eigenvalues --    0.15088   0.15290   0.15445   0.15655   0.15941
 Alpha virt. eigenvalues --    0.16084   0.16469   0.16587   0.16929   0.17129
 Alpha virt. eigenvalues --    0.17362   0.17450   0.17734   0.18088   0.18167
 Alpha virt. eigenvalues --    0.18591   0.19116   0.19287   0.19449   0.19876
 Alpha virt. eigenvalues --    0.20055   0.20464   0.20606   0.20794   0.21188
 Alpha virt. eigenvalues --    0.21679   0.21751   0.21867   0.22320   0.22622
 Alpha virt. eigenvalues --    0.22855   0.22940   0.23290   0.23341   0.23815
 Alpha virt. eigenvalues --    0.24040   0.24182   0.24363   0.24502   0.24875
 Alpha virt. eigenvalues --    0.25305   0.25584   0.25752   0.26148   0.26282
 Alpha virt. eigenvalues --    0.26426   0.26737   0.27011   0.27243   0.27628
 Alpha virt. eigenvalues --    0.27750   0.27840   0.28234   0.28702   0.29290
 Alpha virt. eigenvalues --    0.29390   0.29871   0.30236   0.30455   0.30481
 Alpha virt. eigenvalues --    0.30899   0.31251   0.31807   0.31819   0.32025
 Alpha virt. eigenvalues --    0.32288   0.32811   0.33168   0.33238   0.33491
 Alpha virt. eigenvalues --    0.34078   0.34209   0.34406   0.34672   0.35094
 Alpha virt. eigenvalues --    0.35254   0.35775   0.36029   0.36750   0.37415
 Alpha virt. eigenvalues --    0.37536   0.37820   0.37906   0.38621   0.38905
 Alpha virt. eigenvalues --    0.39171   0.39275   0.39561   0.40159   0.40890
 Alpha virt. eigenvalues --    0.41166   0.41521   0.41565   0.42027   0.42556
 Alpha virt. eigenvalues --    0.43367   0.44823   0.45776   0.46652   0.48284
 Alpha virt. eigenvalues --    0.50579   0.50959   0.51620   0.52206   0.52888
 Alpha virt. eigenvalues --    0.53427   0.54006   0.54178   0.55026   0.55397
 Alpha virt. eigenvalues --    0.55678   0.55905   0.56570   0.57723   0.58084
 Alpha virt. eigenvalues --    0.58358   0.59352   0.59716   0.60206   0.61035
 Alpha virt. eigenvalues --    0.61381   0.62156   0.63004   0.63634   0.64297
 Alpha virt. eigenvalues --    0.64676   0.65297   0.67657   0.67951   0.68162
 Alpha virt. eigenvalues --    0.68444   0.69219   0.69601   0.69667   0.69918
 Alpha virt. eigenvalues --    0.70811   0.71097   0.71578   0.71972   0.72099
 Alpha virt. eigenvalues --    0.72508   0.73183   0.73255   0.73736   0.73800
 Alpha virt. eigenvalues --    0.74462   0.74762   0.75077   0.75288   0.75991
 Alpha virt. eigenvalues --    0.76063   0.76251   0.76384   0.77291   0.77449
 Alpha virt. eigenvalues --    0.77511   0.78057   0.78170   0.78326   0.78621
 Alpha virt. eigenvalues --    0.79049   0.79569   0.79687   0.79807   0.80205
 Alpha virt. eigenvalues --    0.80443   0.80758   0.80850   0.81539   0.81648
 Alpha virt. eigenvalues --    0.82101   0.83279   0.83388   0.83845   0.84353
 Alpha virt. eigenvalues --    0.84829   0.85179   0.86092   0.86832   0.88388
 Alpha virt. eigenvalues --    0.88835   0.90094   0.90772   0.92376   0.92579
 Alpha virt. eigenvalues --    0.93005   0.95494   0.96657   0.97754   0.99974
 Alpha virt. eigenvalues --    1.00275   1.00876   1.02198   1.02907   1.03333
 Alpha virt. eigenvalues --    1.03993   1.05755   1.06350   1.07731   1.08407
 Alpha virt. eigenvalues --    1.09675   1.10743   1.12465   1.13556   1.14453
 Alpha virt. eigenvalues --    1.15300   1.16298   1.16996   1.17530   1.17865
 Alpha virt. eigenvalues --    1.19428   1.21201   1.21898   1.23652   1.24083
 Alpha virt. eigenvalues --    1.24902   1.26077   1.27153   1.27636   1.28285
 Alpha virt. eigenvalues --    1.29580   1.30085   1.30489   1.31416   1.32008
 Alpha virt. eigenvalues --    1.32932   1.33276   1.33666   1.35113   1.35465
 Alpha virt. eigenvalues --    1.37361   1.38025   1.38245   1.38602   1.41207
 Alpha virt. eigenvalues --    1.42614   1.47646   1.48451   1.50975   1.51826
 Alpha virt. eigenvalues --    1.52307   1.52625   1.53134   1.53953   1.54298
 Alpha virt. eigenvalues --    1.55709   1.56000   1.56767   1.57226   1.58840
 Alpha virt. eigenvalues --    1.60479   1.61145   1.62144   1.62441   1.62950
 Alpha virt. eigenvalues --    1.63056   1.63730   1.64215   1.64347   1.64850
 Alpha virt. eigenvalues --    1.65036   1.65617   1.65909   1.66108   1.66269
 Alpha virt. eigenvalues --    1.66688   1.66893   1.67458   1.67707   1.68518
 Alpha virt. eigenvalues --    1.69274   1.69511   1.69829   1.70339   1.70501
 Alpha virt. eigenvalues --    1.71140   1.71693   1.71985   1.72227   1.72725
 Alpha virt. eigenvalues --    1.73301   1.74065   1.74836   1.75131   1.75225
 Alpha virt. eigenvalues --    1.76825   1.76984   1.77607   1.77697   1.78099
 Alpha virt. eigenvalues --    1.78425   1.79284   1.79937   1.80206   1.80553
 Alpha virt. eigenvalues --    1.81872   1.82742   1.83229   1.83270   1.83827
 Alpha virt. eigenvalues --    1.85789   1.86958   1.87523   1.89185   1.89593
 Alpha virt. eigenvalues --    1.89779   1.90168   1.91656   1.92194   1.92840
 Alpha virt. eigenvalues --    1.93940   1.94566   1.95801   1.96524   1.97820
 Alpha virt. eigenvalues --    1.99727   2.00575   2.01340   2.03527   2.05537
 Alpha virt. eigenvalues --    2.06753   2.07792   2.08705   2.10806   2.11069
 Alpha virt. eigenvalues --    2.12722   2.13838   2.14355   2.15260   2.17210
 Alpha virt. eigenvalues --    2.17929   2.18458   2.19982   2.20678   2.21526
 Alpha virt. eigenvalues --    2.23710   2.25097   2.26244   2.26906   2.27456
 Alpha virt. eigenvalues --    2.28841   2.29785   2.30557   2.31113   2.32293
 Alpha virt. eigenvalues --    2.33550   2.33745   2.34535   2.35099   2.35695
 Alpha virt. eigenvalues --    2.37254   2.39671   2.41362   2.42123   2.42300
 Alpha virt. eigenvalues --    2.43261   2.44233   2.46271   2.47269   2.47979
 Alpha virt. eigenvalues --    2.48699   2.49198   2.49726   2.51564   2.52338
 Alpha virt. eigenvalues --    2.53014   2.53968   2.55088   2.55697   2.57441
 Alpha virt. eigenvalues --    2.57681   2.58038   2.58525   2.59320   2.59859
 Alpha virt. eigenvalues --    2.60701   2.60960   2.61542   2.61841   2.62224
 Alpha virt. eigenvalues --    2.63849   2.64077   2.64647   2.65216   2.66248
 Alpha virt. eigenvalues --    2.66587   2.67287   2.67869   2.68155   2.69156
 Alpha virt. eigenvalues --    2.69668   2.70232   2.70756   2.71109   2.71912
 Alpha virt. eigenvalues --    2.72521   2.73957   2.74304   2.74959   2.75209
 Alpha virt. eigenvalues --    2.75830   2.76578   2.77681   2.78006   2.78548
 Alpha virt. eigenvalues --    2.79263   2.80532   2.81581   2.82030   2.83369
 Alpha virt. eigenvalues --    2.84601   2.85601   2.86686   2.86754   2.87570
 Alpha virt. eigenvalues --    2.88210   2.89265   2.89665   2.89836   2.92374
 Alpha virt. eigenvalues --    2.93043   2.93693   2.93795   2.94831   2.95377
 Alpha virt. eigenvalues --    2.95657   2.96237   2.96608   2.98547   2.98819
 Alpha virt. eigenvalues --    2.99743   3.00082   3.01863   3.03187   3.05200
 Alpha virt. eigenvalues --    3.05847   3.11137   3.12336   3.12506   3.12941
 Alpha virt. eigenvalues --    3.14169   3.19628   3.20299   3.21313   3.24021
 Alpha virt. eigenvalues --    3.25561   3.26598   3.30423   3.32865   3.37070
 Alpha virt. eigenvalues --    3.40469   3.43266   3.45092   3.47491   3.49580
 Alpha virt. eigenvalues --    3.54836   3.55930   3.64957   3.67270   3.72215
 Alpha virt. eigenvalues --    3.77825   3.81699   3.82123   3.82362   3.82862
 Alpha virt. eigenvalues --    3.83775   3.85299   3.85368   3.86392   3.86449
 Alpha virt. eigenvalues --    3.87066   3.87861   3.89041   3.90416   3.91804
 Alpha virt. eigenvalues --    3.92933   3.96561   3.96910   4.08437   4.12470
 Alpha virt. eigenvalues --    4.12898   4.14164   4.15536   4.18197   4.21238
 Alpha virt. eigenvalues --    4.25033   4.28751   4.32450   4.36563   4.39749
 Alpha virt. eigenvalues --    4.43233   4.44474   4.48040   4.51498   5.14173
 Alpha virt. eigenvalues --    5.21817   5.34285   5.48925   5.71016   5.95953
 Alpha virt. eigenvalues --   23.59519  23.84271  23.92228  23.93298  23.94327
 Alpha virt. eigenvalues --   23.95385  23.95665  23.96918  23.98530  23.98853
 Alpha virt. eigenvalues --   23.99366  23.99482  24.00766  24.01165  24.01812
 Alpha virt. eigenvalues --   24.03735  24.05201  25.16410  49.90505  50.01276
          Condensed to atoms (all electrons):
 Mulliken charges:
               1
     1  O   -0.059653
     2  O   -0.156001
     3  C   -0.667807
     4  C    0.086251
     5  C   -0.144453
     6  C   -1.048095
     7  C    0.243016
     8  C    0.377831
     9  C   -0.615471
    10  C   -0.778173
    11  C   -0.585864
    12  C   -0.594937
    13  C   -0.109957
    14  C   -0.078478
    15  C   -0.740252
    16  C   -0.760043
    17  C   -1.027587
    18  C   -0.206392
    19  C    0.121046
    20  C   -0.127707
    21  H    0.158207
    22  H    0.203879
    23  H    0.203088
    24  H    0.152630
    25  H    0.228076
    26  H    0.196854
    27  H    0.187149
    28  H    0.223240
    29  H    0.211969
    30  H    0.036617
    31  H    0.182529
    32  H    0.016099
    33  H    0.196053
    34  H    0.191181
    35  H    0.231621
    36  H    0.280172
    37  H    0.224505
    38  H    0.240910
    39  H    0.210261
    40  H    0.283849
    41  H    0.146574
    42  H    0.215244
    43  H    0.253943
    44  H    0.285010
    45  H    0.280310
    46  H    0.274416
    47  H    0.302768
    48  H    0.303975
    49  H    0.184225
    50  H    0.183972
    51  H    0.248256
    52  H    0.335145
 Sum of Mulliken charges =  -0.00000
 Mulliken charges with hydrogens summed into heavy atoms:
               1
     1  O    0.275492
     2  O   -0.156001
     3  C   -0.305722
     4  C    0.441969
     5  C    0.280477
     6  C   -0.637706
     7  C    0.491602
     8  C    0.576460
     9  C   -0.228237
    10  C   -0.266379
    11  C   -0.120449
    12  C   -0.100827
    13  C    0.251861
    14  C    0.460475
    15  C   -0.185527
    16  C   -0.153299
    17  C   -0.411135
    18  C   -0.206392
    19  C    0.121046
    20  C   -0.127707
 Electronic spatial extent (au):  <R**2>=           9268.2208
 Charge=              0.0000 electrons
 Dipole moment (field-independent basis, Debye):
    X=             -0.4373    Y=             -0.4650    Z=              1.4267  Tot=              1.5630
 Quadrupole moment (field-independent basis, Debye-Ang):
   XX=           -127.6293   YY=           -117.1717   ZZ=           -133.6475
   XY=              2.7898   XZ=             -3.9597   YZ=             -1.7573
 Traceless Quadrupole moment (field-independent basis, Debye-Ang):
   XX=             -1.4798   YY=              8.9778   ZZ=             -7.4980
   XY=              2.7898   XZ=             -3.9597   YZ=             -1.7573
 Octapole moment (field-independent basis, Debye-Ang**2):
  XXX=            -70.8095  YYY=            -17.9570  ZZZ=              3.0248  XYY=            -13.2492
  XXY=              1.6155  XXZ=              8.9379  XZZ=              4.1161  YZZ=             -1.2177
  YYZ=              7.7532  XYZ=             -6.5228
 Hexadecapole moment (field-independent basis, Debye-Ang**3):
 XXXX=          -7382.8883 YYYY=          -4816.5794 ZZZZ=           -500.1011 XXXY=             84.9750
 XXXZ=            -22.6724 YYYX=              8.2062 YYYZ=             -8.7754 ZZZX=             -2.9464
 ZZZY=             -1.6421 XXYY=          -1877.7727 XXZZ=          -1400.4232 YYZZ=           -899.7162
 XXYZ=            -10.3273 YYXZ=            -14.7898 ZZXY=              9.2842
 N-N= 1.548306154369D+03 E-N=-5.083567983043D+03  KE= 8.511059938907D+02
 R6APFD:  NTU= -4 IXU= 1 FactS= 1.050
 Calling FoFJK, ICntrl=      2127 FMM=F ISym2X=0 I1Cent= 0 IOpClX= 0 NMat=1 NMatS=1 NMatT=0.
 ***** Axes restored to original set *****
 -------------------------------------------------------------------
 Center     Atomic                   Forces (Hartrees/Bohr)
 Number     Number              X              Y              Z
 -------------------------------------------------------------------
      1        8          -0.001440994    0.010468997    0.009640086
      2        8           0.013698261   -0.009316905   -0.032739840
      3        6           0.001261140   -0.005756080   -0.010285312
      4        6          -0.003476651    0.004620364    0.010643377
      5        6          -0.003369169    0.003444374    0.006434933
      6        6           0.003474978   -0.006937964    0.003169063
      7        6           0.006968025    0.000372327   -0.000273537
      8        6          -0.005951752    0.006103374   -0.004937248
      9        6           0.002570019   -0.005352670   -0.011003274
     10        6           0.003091682    0.002057739   -0.008114867
     11        6           0.008982467    0.002769577    0.000432657
     12        6          -0.006830652   -0.003983508    0.006201446
     13        6          -0.001309145    0.002614804    0.006890220
     14        6          -0.002370538   -0.004575704   -0.002707847
     15        6          -0.000147193    0.003274275    0.003987176
     16        6          -0.010149986   -0.003026587    0.001940954
     17        6           0.003672639   -0.001677046   -0.001312696
     18        6           0.001185802    0.007391668    0.004694735
     19        6          -0.000357480   -0.006829790   -0.004621225
     20        6          -0.009169134    0.020619393    0.018988821
     21        1          -0.000465511   -0.001528134    0.003432749
     22        1          -0.000727317    0.002874665    0.001909681
     23        1           0.000239941    0.000937484   -0.003176215
     24        1           0.000647172   -0.002388710   -0.001448220
     25        1           0.001062559    0.000948561   -0.002081394
     26        1           0.000034271   -0.004081518    0.000559751
     27        1           0.000168623   -0.004384429    0.000421161
     28        1          -0.000020770   -0.001270979    0.003376297
     29        1          -0.000932517    0.001275779   -0.003860905
     30        1          -0.003801068    0.003391067   -0.000364603
     31        1          -0.000015106    0.000993287   -0.004174067
     32        1           0.002064662    0.003707320    0.000643963
     33        1          -0.000715249    0.002717095    0.001479325
     34        1           0.000337461   -0.000816626    0.002712718
     35        1          -0.000268748    0.002353362    0.001161449
     36        1          -0.002423757   -0.001039193    0.000946586
     37        1           0.000659973   -0.002418363   -0.000341369
     38        1          -0.000798651   -0.000167631    0.001785942
     39        1           0.000388409   -0.002304294   -0.000135110
     40        1           0.001140766    0.000569819    0.001672414
     41        1          -0.001166802   -0.004481147   -0.002150104
     42        1          -0.001523461    0.000070161   -0.003536362
     43        1           0.002170322   -0.000225290    0.001789137
     44        1          -0.001357678   -0.000776900    0.001779574
     45        1          -0.002730874    0.000026522   -0.000279132
     46        1          -0.000291888    0.000754536   -0.002470271
     47        1           0.004035046    0.002211889   -0.000929250
     48        1           0.003135514    0.000251041   -0.001028490
     49        1           0.000325590    0.001765279    0.001045008
     50        1           0.003827463    0.001904393    0.001553878
     51        1           0.000164840   -0.000794060    0.001643717
     52        1          -0.003495528   -0.016355624    0.001034518
 -------------------------------------------------------------------
 Cartesian Forces:  Max     0.032739840 RMS     0.005345225

 GradGradGradGradGradGradGradGradGradGradGradGradGradGradGradGradGradGrad
 Berny optimization.
 FormGI is forming the generalized inverse of G from B-inverse, IUseBI=4.
 Internal  Forces:  Max     0.041191654 RMS     0.007364401
 Search for a local minimum.
 Step number   1 out of a maximum of  293
 All quantities printed in internal units (Hartrees-Bohrs-Radians)
 Mixed Optimization -- RFO/linear search
 Second derivative matrix not updated -- first step.
 ITU=  0
     Eigenvalues ---    0.00230   0.00313   0.00327   0.00342   0.00343
     Eigenvalues ---    0.00356   0.00360   0.00362   0.00366   0.00368
     Eigenvalues ---    0.00378   0.00390   0.00402   0.00498   0.00660
     Eigenvalues ---    0.01045   0.02257   0.02380   0.02504   0.03249
     Eigenvalues ---    0.03253   0.03309   0.03440   0.03463   0.03488
     Eigenvalues ---    0.03520   0.03638   0.03674   0.03686   0.03688
     Eigenvalues ---    0.03719   0.03871   0.04298   0.04758   0.04760
     Eigenvalues ---    0.04772   0.04804   0.04810   0.04830   0.04840
     Eigenvalues ---    0.04844   0.04880   0.04881   0.04891   0.04904
     Eigenvalues ---    0.04929   0.05461   0.05609   0.05628   0.05708
     Eigenvalues ---    0.05798   0.08075   0.08108   0.08110   0.08172
     Eigenvalues ---    0.08333   0.08414   0.08416   0.08442   0.08698
     Eigenvalues ---    0.08816   0.08818   0.08869   0.09208   0.09236
     Eigenvalues ---    0.12009   0.12034   0.12034   0.12071   0.12205
     Eigenvalues ---    0.12262   0.12274   0.12283   0.12468   0.12549
     Eigenvalues ---    0.12550   0.12694   0.12714   0.12985   0.16000
     Eigenvalues ---    0.16000   0.16000   0.16000   0.21881   0.21898
     Eigenvalues ---    0.21900   0.21902   0.21905   0.21911   0.21920
     Eigenvalues ---    0.21928   0.21930   0.21938   0.21957   0.21960
     Eigenvalues ---    0.21969   0.21984   0.24996   0.25000   0.29034
     Eigenvalues ---    0.29129   0.29238   0.29242   0.29335   0.29362
     Eigenvalues ---    0.29376   0.29403   0.29415   0.29484   0.29572
     Eigenvalues ---    0.29653   0.30345   0.31549   0.33919   0.33951
     Eigenvalues ---    0.33976   0.33978   0.33978   0.33983   0.34008
     Eigenvalues ---    0.34017   0.34019   0.34021   0.34029   0.34035
     Eigenvalues ---    0.34047   0.34051   0.34052   0.34053   0.34058
     Eigenvalues ---    0.34081   0.34094   0.34099   0.34108   0.34110
     Eigenvalues ---    0.34123   0.34131   0.34150   0.34199   0.34245
     Eigenvalues ---    0.34263   0.34267   0.34287   0.34297   0.35865
     Eigenvalues ---    0.35865   0.51194   0.53508   0.94533   1.04335
 RFO step:  Lambda=-7.96450046D-02 EMin= 2.30000000D-03
 Linear search not attempted -- first point.
 Maximum step size (   0.300) exceeded in Quadratic search.
    -- Step size scaled by   0.527
 Iteration  1 RMS(Cart)=  0.29516592 RMS(Int)=  0.01831559
 Iteration  2 RMS(Cart)=  0.30112520 RMS(Int)=  0.01338160
 Iteration  3 RMS(Cart)=  0.35173944 RMS(Int)=  0.00844577
 Iteration  4 RMS(Cart)=  0.36877438 RMS(Int)=  0.00390162
 Iteration  5 RMS(Cart)=  0.01234733 RMS(Int)=  0.00134185
 Iteration  6 RMS(Cart)=  0.00002541 RMS(Int)=  0.00134184
 Iteration  7 RMS(Cart)=  0.00000072 RMS(Int)=  0.00134184
 Iteration  1 RMS(Cart)=  0.31001073 RMS(Int)=  0.01575124
 Iteration  2 RMS(Cart)=  0.32327401 RMS(Int)=  0.01067729
 Iteration  3 RMS(Cart)=  0.40133965 RMS(Int)=  0.00609674
 Iteration  4 RMS(Cart)=  0.14911919 RMS(Int)=  0.00124250
 Iteration  5 RMS(Cart)=  0.00260973 RMS(Int)=  0.00108266
 Iteration  6 RMS(Cart)=  0.00001175 RMS(Int)=  0.00108266
 Iteration  7 RMS(Cart)=  0.00000020 RMS(Int)=  0.00108266
 ITry= 2 IFail=0 DXMaxC= 5.09D+00 DCOld= 5.66D+00 DXMaxT= 3.00D-01 DXLimC= 3.00D+00 Rises=F
 Iteration  1 RMS(Cart)=  0.32454206 RMS(Int)=  0.01322219
 Iteration  2 RMS(Cart)=  0.34781258 RMS(Int)=  0.00814600
 Iteration  3 RMS(Cart)=  0.37882348 RMS(Int)=  0.00389865
 Iteration  4 RMS(Cart)=  0.01217697 RMS(Int)=  0.00085230
 Iteration  5 RMS(Cart)=  0.00001879 RMS(Int)=  0.00085228
 Iteration  6 RMS(Cart)=  0.00000016 RMS(Int)=  0.00085228
 ITry= 3 IFail=0 DXMaxC= 4.52D+00 DCOld= 5.09D+00 DXMaxT= 3.00D-01 DXLimC= 3.00D+00 Rises=F
 Iteration  1 RMS(Cart)=  0.33736417 RMS(Int)=  0.01076661
 Iteration  2 RMS(Cart)=  0.37025862 RMS(Int)=  0.00599164
 Iteration  3 RMS(Cart)=  0.21123370 RMS(Int)=  0.00135460
 Iteration  4 RMS(Cart)=  0.00395458 RMS(Int)=  0.00065026
 Iteration  5 RMS(Cart)=  0.00000351 RMS(Int)=  0.00065026
 Iteration  6 RMS(Cart)=  0.00000005 RMS(Int)=  0.00065026
 ITry= 4 IFail=0 DXMaxC= 3.95D+00 DCOld= 4.52D+00 DXMaxT= 3.00D-01 DXLimC= 3.00D+00 Rises=F
 Iteration  1 RMS(Cart)=  0.34601035 RMS(Int)=  0.00844148
 Iteration  2 RMS(Cart)=  0.37369159 RMS(Int)=  0.00431159
 Iteration  3 RMS(Cart)=  0.06712445 RMS(Int)=  0.00049075
 Iteration  4 RMS(Cart)=  0.00057105 RMS(Int)=  0.00047619
 Iteration  5 RMS(Cart)=  0.00000105 RMS(Int)=  0.00047619
 Iteration  6 RMS(Cart)=  0.00000001 RMS(Int)=  0.00047619
 ITry= 5 IFail=0 DXMaxC= 3.38D+00 DCOld= 3.95D+00 DXMaxT= 3.00D-01 DXLimC= 3.00D+00 Rises=F
 Iteration  1 RMS(Cart)=  0.34636472 RMS(Int)=  0.00631822
 Iteration  2 RMS(Cart)=  0.30660376 RMS(Int)=  0.00249406
 Iteration  3 RMS(Cart)=  0.00779029 RMS(Int)=  0.00032970
 Iteration  4 RMS(Cart)=  0.00000881 RMS(Int)=  0.00032969
 Iteration  5 RMS(Cart)=  0.00000002 RMS(Int)=  0.00032969
 ITry= 6 IFail=0 DXMaxC= 2.81D+00 DCOld= 3.38D+00 DXMaxT= 3.00D-01 DXLimC= 3.00D+00 Rises=F
 Variable       Old X    -DE/DX   Delta X   Delta X   Delta X     New X
                                 (Linear)    (Quad)   (Total)
    R1        2.56482  -0.01293   0.00000  -0.01108  -0.00554   2.55928
    R2        1.85380  -0.01539   0.00000  -0.01370  -0.00685   1.84695
    R3        2.30912  -0.03658   0.00000  -0.01880  -0.00940   2.29971
    R4        2.89225   0.00199   0.00000   0.00281   0.00141   2.89365
    R5        2.89254  -0.00035   0.00000  -0.00050  -0.00025   2.89229
    R6        2.06996   0.00369   0.00000   0.00461   0.00231   2.07227
    R7        2.07242   0.00338   0.00000   0.00424   0.00212   2.07454
    R8        2.89005   0.00097   0.00000   0.00137   0.00068   2.89073
    R9        2.07271   0.00317   0.00000   0.00398   0.00199   2.07470
   R10        2.07301   0.00276   0.00000   0.00347   0.00173   2.07474
   R11        2.89932   0.00017   0.00000   0.00024   0.00012   2.89944
   R12        2.07367   0.00227   0.00000   0.00286   0.00143   2.07510
   R13        2.07149   0.00360   0.00000   0.00451   0.00226   2.07374
   R14        2.89501  -0.00596   0.00000  -0.00844  -0.00422   2.89079
   R15        2.89510  -0.00407   0.00000  -0.00577  -0.00288   2.89221
   R16        2.07371   0.00409   0.00000   0.00513   0.00257   2.07628
   R17        2.07359   0.00338   0.00000   0.00424   0.00212   2.07571
   R18        2.89734  -0.00357   0.00000  -0.00507  -0.00253   2.89481
   R19        2.07299   0.00390   0.00000   0.00489   0.00245   2.07543
   R20        2.07163   0.00336   0.00000   0.00420   0.00210   2.07373
   R21        2.89309  -0.00604   0.00000  -0.00853  -0.00427   2.88882
   R22        2.07414   0.00419   0.00000   0.00527   0.00263   2.07677
   R23        2.07194   0.00360   0.00000   0.00451   0.00225   2.07420
   R24        2.88826   0.00198   0.00000   0.00278   0.00139   2.88965
   R25        2.07252   0.00311   0.00000   0.00389   0.00195   2.07446
   R26        2.07281   0.00271   0.00000   0.00340   0.00170   2.07451
   R27        2.89169   0.00143   0.00000   0.00202   0.00101   2.89270
   R28        2.07317   0.00257   0.00000   0.00323   0.00161   2.07478
   R29        2.07467   0.00107   0.00000   0.00135   0.00067   2.07534
   R30        2.89146   0.00119   0.00000   0.00168   0.00084   2.89230
   R31        2.07242   0.00247   0.00000   0.00310   0.00155   2.07397
   R32        2.07367   0.00179   0.00000   0.00224   0.00112   2.07479
   R33        2.88662   0.00090   0.00000   0.00125   0.00063   2.88724
   R34        2.07244   0.00225   0.00000   0.00282   0.00141   2.07386
   R35        2.07294   0.00173   0.00000   0.00218   0.00109   2.07403
   R36        2.87280   0.00774   0.00000   0.01065   0.00532   2.87813
   R37        2.07077   0.00445   0.00000   0.00557   0.00278   2.07356
   R38        2.07145   0.00293   0.00000   0.00367   0.00183   2.07328
   R39        2.77592  -0.00737   0.00000  -0.00886  -0.00444   2.77148
   R40        2.06882   0.00257   0.00000   0.00321   0.00160   2.07042
   R41        2.07233   0.00173   0.00000   0.00217   0.00109   2.07342
   R42        2.77593  -0.00693   0.00000  -0.00834  -0.00415   2.77178
   R43        2.07123   0.00190   0.00000   0.00238   0.00119   2.07242
   R44        2.07172   0.00240   0.00000   0.00301   0.00150   2.07322
   R45        2.84978   0.00403   0.00000   0.00537   0.00269   2.85246
   R46        2.07109   0.00064   0.00000   0.00080   0.00040   2.07150
   R47        2.06918   0.00230   0.00000   0.00287   0.00144   2.07062
   R48        2.06849   0.00187   0.00000   0.00234   0.00117   2.06966
   R49        2.06832   0.00283   0.00000   0.00352   0.00176   2.07009
   R50        2.06888   0.00181   0.00000   0.00225   0.00113   2.07001
   R51        2.26951   0.00067   0.00000   0.00031   0.00015   2.26967
    A1        1.95317  -0.01230   0.00000  -0.02704  -0.01352   1.93965
    A2        1.94096  -0.00387   0.00000  -0.00678  -0.00340   1.93755
    A3        1.89666  -0.00066   0.00000  -0.00646  -0.00325   1.89341
    A4        1.91575   0.00328   0.00000   0.01118   0.00559   1.92134
    A5        1.92516  -0.00064   0.00000  -0.00634  -0.00319   1.92197
    A6        1.91090   0.00306   0.00000   0.01057   0.00528   1.91618
    A7        1.87314  -0.00108   0.00000  -0.00203  -0.00100   1.87214
    A8        1.94342   0.01143   0.00000   0.02128   0.01063   1.95405
    A9        1.91138  -0.00218   0.00000   0.00030   0.00012   1.91150
   A10        1.91287  -0.00448   0.00000  -0.01097  -0.00547   1.90740
   A11        1.91054  -0.00159   0.00000   0.00195   0.00094   1.91149
   A12        1.91378  -0.00490   0.00000  -0.01203  -0.00599   1.90779
   A13        1.87040   0.00131   0.00000  -0.00142  -0.00071   1.86968
   A14        1.97522   0.01299   0.00000   0.02344   0.01168   1.98690
   A15        1.89997  -0.00099   0.00000   0.00707   0.00344   1.90341
   A16        1.91805  -0.00687   0.00000  -0.02005  -0.00999   1.90805
   A17        1.88577  -0.00046   0.00000   0.00864   0.00423   1.89001
   A18        1.92478  -0.00732   0.00000  -0.02113  -0.01053   1.91425
   A19        1.85574   0.00223   0.00000   0.00174   0.00089   1.85664
   A20        2.01815  -0.02974   0.00000  -0.05370  -0.02687   1.99128
   A21        1.89563   0.01031   0.00000   0.02190   0.01104   1.90667
   A22        1.89919   0.00762   0.00000   0.00795   0.00389   1.90308
   A23        1.89182   0.01107   0.00000   0.02389   0.01202   1.90384
   A24        1.89599   0.00744   0.00000   0.00749   0.00367   1.89966
   A25        1.85650  -0.00512   0.00000  -0.00407  -0.00211   1.85439
   A26        1.97701   0.01564   0.00000   0.02911   0.01458   1.99159
   A27        1.89952  -0.00224   0.00000   0.00370   0.00178   1.90130
   A28        1.88858  -0.00435   0.00000  -0.00967  -0.00479   1.88379
   A29        1.90531  -0.00266   0.00000   0.00075   0.00027   1.90558
   A30        1.92516  -0.00868   0.00000  -0.02296  -0.01146   1.91370
   A31        1.86476   0.00163   0.00000  -0.00242  -0.00122   1.86354
   A32        2.01725  -0.00037   0.00000  -0.00047  -0.00022   2.01703
   A33        1.89033   0.00106   0.00000   0.00575   0.00285   1.89319
   A34        1.88342   0.00094   0.00000   0.00023   0.00010   1.88353
   A35        1.89473   0.00177   0.00000   0.00665   0.00331   1.89804
   A36        1.91762  -0.00299   0.00000  -0.01074  -0.00538   1.91224
   A37        1.85354  -0.00039   0.00000  -0.00133  -0.00066   1.85289
   A38        1.94282   0.00235   0.00000   0.00456   0.00228   1.94510
   A39        1.91424  -0.00026   0.00000   0.00151   0.00075   1.91499
   A40        1.91088  -0.00056   0.00000  -0.00193  -0.00096   1.90992
   A41        1.91110   0.00044   0.00000   0.00311   0.00155   1.91265
   A42        1.91329  -0.00206   0.00000  -0.00613  -0.00306   1.91023
   A43        1.87008  -0.00000   0.00000  -0.00137  -0.00068   1.86940
   A44        2.00614  -0.02528   0.00000  -0.04621  -0.02310   1.98304
   A45        1.90289   0.01324   0.00000   0.03024   0.01513   1.91802
   A46        1.88818   0.00366   0.00000  -0.00004  -0.00007   1.88812
   A47        1.89771   0.00460   0.00000   0.00706   0.00361   1.90132
   A48        1.90517   0.00873   0.00000   0.01233   0.00608   1.91124
   A49        1.85818  -0.00358   0.00000  -0.00031  -0.00020   1.85798
   A50        1.96828  -0.02911   0.00000  -0.05321  -0.02667   1.94161
   A51        1.91041   0.01103   0.00000   0.02572   0.01296   1.92338
   A52        1.90426   0.00667   0.00000   0.00384   0.00179   1.90605
   A53        1.89713   0.01144   0.00000   0.02647   0.01335   1.91048
   A54        1.91467   0.00577   0.00000   0.00144   0.00060   1.91527
   A55        1.86632  -0.00457   0.00000  -0.00152  -0.00082   1.86550
   A56        1.97747  -0.01432   0.00000  -0.02619  -0.01311   1.96436
   A57        1.90156   0.00501   0.00000   0.01122   0.00563   1.90719
   A58        1.90519   0.00443   0.00000   0.00556   0.00275   1.90793
   A59        1.89447   0.00537   0.00000   0.01169   0.00586   1.90034
   A60        1.91910   0.00239   0.00000  -0.00011  -0.00006   1.91904
   A61        1.86244  -0.00219   0.00000  -0.00059  -0.00031   1.86213
   A62        1.94622   0.00445   0.00000   0.00856   0.00428   1.95050
   A63        1.91606  -0.00275   0.00000  -0.00734  -0.00367   1.91238
   A64        1.91750  -0.00220   0.00000  -0.00462  -0.00232   1.91518
   A65        1.90595  -0.00030   0.00000   0.00082   0.00042   1.90637
   A66        1.90572   0.00049   0.00000   0.00420   0.00210   1.90782
   A67        1.87079   0.00016   0.00000  -0.00195  -0.00098   1.86980
   A68        1.95383  -0.01400   0.00000  -0.02516  -0.01265   1.94118
   A69        1.93352   0.01447   0.00000   0.02355   0.00962   1.94314
   A70        1.89404   0.00071   0.00000   0.00710   0.00464   1.89868
   A71        1.92357  -0.00401   0.00000  -0.01645  -0.00777   1.91579
   A72        1.90107   0.00880   0.00000   0.02180   0.01111   1.91219
   A73        1.85460  -0.00544   0.00000  -0.00942  -0.00416   1.85044
   A74        1.95752  -0.03338   0.00000  -0.05964  -0.02932   1.92820
   A75        1.90278   0.01482   0.00000   0.03292   0.01816   1.92093
   A76        1.91244   0.01936   0.00000   0.03402   0.01595   1.92840
   A77        1.91159   0.00936   0.00000   0.01778   0.00860   1.92019
   A78        1.91254   0.00363   0.00000  -0.00106  -0.00068   1.91186
   A79        1.86462  -0.01274   0.00000  -0.02202  -0.01173   1.85290
   A80        1.94571  -0.00506   0.00000  -0.00865  -0.00431   1.94140
   A81        1.90711   0.00523   0.00000   0.01313   0.00655   1.91366
   A82        1.92383   0.00208   0.00000   0.00518   0.00258   1.92641
   A83        1.91043  -0.00137   0.00000  -0.00576  -0.00288   1.90755
   A84        1.88377   0.00135   0.00000   0.00111   0.00056   1.88433
   A85        1.89213  -0.00227   0.00000  -0.00524  -0.00264   1.88950
   A86        1.93766   0.00026   0.00000   0.00022   0.00011   1.93777
   A87        1.92396   0.00501   0.00000   0.01154   0.00577   1.92972
   A88        1.93681  -0.00064   0.00000  -0.00157  -0.00078   1.93602
   A89        1.88705  -0.00252   0.00000  -0.00522  -0.00261   1.88444
   A90        1.89100  -0.00055   0.00000  -0.00218  -0.00109   1.88991
   A91        1.88573  -0.00177   0.00000  -0.00320  -0.00160   1.88413
   A92        2.16023  -0.00839   0.00000  -0.01339  -0.00669   2.15354
   A93        1.92327   0.01028   0.00000   0.01647   0.00823   1.93150
   A94        2.19944  -0.00187   0.00000  -0.00296  -0.00148   2.19796
   A95        3.13827  -0.03740   0.00000  -0.16444  -0.08358   3.05470
   A96        3.13393  -0.04119   0.00000  -0.17957  -0.09069   3.04324
   A97        3.15413   0.00031   0.00000   0.00073   0.00071   3.15484
   A98        3.13001   0.00790   0.00000   0.03187   0.01500   3.14501
    D1        0.01412  -0.00025   0.00000  -0.00148  -0.00074   0.01339
    D2        3.13322   0.00071   0.00000   0.00384   0.00192   3.13513
    D3        3.10931   0.00561   0.00000   0.02762   0.01381   3.12313
    D4        0.99385   0.00162   0.00000   0.01111   0.00555   0.99939
    D5       -1.05333   0.00392   0.00000   0.01904   0.00951  -1.04382
    D6       -1.05153   0.00191   0.00000   0.01113   0.00558  -1.04596
    D7        3.11618  -0.00207   0.00000  -0.00538  -0.00269   3.11350
    D8        1.06900   0.00023   0.00000   0.00255   0.00128   1.07028
    D9        0.99207   0.00209   0.00000   0.01126   0.00564   0.99771
   D10       -1.12340  -0.00190   0.00000  -0.00525  -0.00263  -1.12603
   D11        3.11261   0.00040   0.00000   0.00268   0.00134   3.11394
   D12       -3.12180  -0.00838   0.00000  -0.04103  -0.02053   3.14086
   D13       -1.02473  -0.00128   0.00000  -0.01012  -0.00504  -1.02977
   D14        1.00116  -0.00299   0.00000  -0.01519  -0.00759   0.99357
   D15        1.05576  -0.00456   0.00000  -0.02418  -0.01211   1.04364
   D16       -3.13036   0.00253   0.00000   0.00673   0.00338  -3.12699
   D17       -1.10448   0.00082   0.00000   0.00167   0.00083  -1.10365
   D18       -1.00172  -0.00472   0.00000  -0.02432  -0.01218  -1.01390
   D19        1.09535   0.00238   0.00000   0.00658   0.00331   1.09866
   D20        3.12123   0.00066   0.00000   0.00152   0.00076   3.12200
   D21       -3.11716  -0.00368   0.00000  -0.01801  -0.00901  -3.12617
   D22       -0.99946  -0.00176   0.00000  -0.01009  -0.00505  -1.00452
   D23        1.04784  -0.00225   0.00000  -0.01199  -0.00601   1.04183
   D24       -1.00120  -0.00005   0.00000  -0.00247  -0.00123  -1.00244
   D25        1.11649   0.00187   0.00000   0.00544   0.00273   1.11922
   D26       -3.11939   0.00138   0.00000   0.00354   0.00178  -3.11762
   D27        1.04602  -0.00225   0.00000  -0.01005  -0.00502   1.04100
   D28       -3.11947  -0.00033   0.00000  -0.00213  -0.00106  -3.12053
   D29       -1.07217  -0.00081   0.00000  -0.00404  -0.00201  -1.07418
   D30       -1.11353   0.00577   0.00000   0.02829   0.01422  -1.09931
   D31        1.02179   0.00421   0.00000   0.02829   0.01413   1.03593
   D32        3.03583   0.00892   0.00000   0.04386   0.02194   3.05777
   D33        3.06451  -0.00087   0.00000  -0.00137  -0.00065   3.06385
   D34       -1.08335  -0.00244   0.00000  -0.00137  -0.00074  -1.08409
   D35        0.93069   0.00228   0.00000   0.01420   0.00706   0.93775
   D36        1.04300   0.00067   0.00000   0.00307   0.00159   1.04459
   D37       -3.10485  -0.00089   0.00000   0.00307   0.00150  -3.10336
   D38       -1.09082   0.00383   0.00000   0.01864   0.00930  -1.08151
   D39        3.10723   0.00697   0.00000   0.03399   0.01697   3.12420
   D40        0.98450   0.00156   0.00000   0.01101   0.00546   0.98995
   D41       -1.03575   0.00317   0.00000   0.01711   0.00853  -1.02723
   D42        0.97681   0.00520   0.00000   0.02315   0.01160   0.98842
   D43       -1.14592  -0.00021   0.00000   0.00017   0.00009  -1.14583
   D44        3.11702   0.00140   0.00000   0.00626   0.00316   3.12018
   D45       -1.03728   0.00164   0.00000   0.01196   0.00599  -1.03129
   D46        3.12318  -0.00376   0.00000  -0.01102  -0.00553   3.11765
   D47        1.10293  -0.00216   0.00000  -0.00492  -0.00246   1.10047
   D48       -3.10172  -0.00543   0.00000  -0.02665  -0.01329  -3.11501
   D49       -0.97222  -0.00255   0.00000  -0.01386  -0.00690  -0.97912
   D50        1.02738  -0.00198   0.00000  -0.01239  -0.00617   1.02122
   D51       -0.96927  -0.00400   0.00000  -0.01675  -0.00841  -0.97768
   D52        1.16022  -0.00112   0.00000  -0.00397  -0.00201   1.15821
   D53       -3.12336  -0.00055   0.00000  -0.00250  -0.00128  -3.12464
   D54        1.04109  -0.00026   0.00000  -0.00498  -0.00249   1.03859
   D55       -3.11260   0.00261   0.00000   0.00780   0.00390  -3.10870
   D56       -1.11299   0.00318   0.00000   0.00927   0.00463  -1.10836
   D57       -3.08249  -0.00762   0.00000  -0.03918  -0.01957  -3.10206
   D58       -0.96827  -0.00469   0.00000  -0.02285  -0.01147  -0.97974
[...]
 40,0.00000052,0.00000396,0.00091261,0.00079641,-0.00000736,-0.00000084
 ,-0.00000514,-0.00000822,0.00000148,0.00000236,-0.00000187,-0.00004340
 ,0.00000904,0.00003627,0.00503730,-0.02043198,-0.00523070,0.00000138,0
 .00000388,0.00000299,0.00000050,-0.00000140,0.00000327,0.00009468,-0.0
 0004577,0.00010355,0.01423861,-0.04322397,-0.05400044,-0.00000259,0.00
 000067,-0.00000208,-0.00000311,-0.00000034,-0.00000066,0.00036481,-0.0
 0029603,-0.00097195,0.00000807,0.00000707,-0.00000464,-0.00002113,-0.0
 0000924,0.00001880,-0.00000414,-0.00000326,-0.00008942,0.00007849,0.00
 006998,0.00000859,-0.00000144,0.00000112,-0.00000986,-0.00000075,0.000
 00137,-0.00000466,-0.00001254,-0.00001641,0.00000073,-0.00001183,-0.00
 001076,0.00001000,0.00000340,0.00000138,0.00000119,0.00000315,-0.00000
 192,-0.00000235,0.00002185,0.00004570,0.00005853,-0.00000482,0.0000054
 4,-0.00008814,-0.00010153,0.00023972,0.00049055,0.00001307,0.00010885,
 0.00004003,-0.00000083,0.00000154,0.00000426,-0.00000630,-0.00000084,-
 0.00000054,-0.00000004,-0.00000174,-0.00000019,-0.00000111,-0.00000004
 ,0.00000096,0.00002130,0.00000208,0.00000657,-0.00000210,-0.00003210,0
 .00000722,-0.00335839,-0.00161280,-0.00174365,0.00066912,0.00011236,0.
 00011928,0.00000159,-0.00000013,-0.00000295,-0.00000158,-0.00000050,0.
 00000033,-0.00000195,-0.00000040,0.00000051,0.00000082,0.00000046,-0.0
 0000098,-0.00002027,0.00009079,0.00013005,0.00001663,-0.00002749,0.000
 02553,-0.01247827,0.05070484,0.05762447,0.00001273,0.00262626,-0.00063
 051,0.00066519,-0.00008047,-0.00037129,-0.00024548,-0.00016840,-0.0005
 6921,-0.00072837,-0.00016529,0.00145428,-0.00013932,0.00006097,0.00021
 358,0.00002146,-0.00001444,-0.00001249,-0.00001853,0.00003605,0.000018
 15,0.00000827,0.00006960,0.00003669,-0.00212192,-0.00196598,-0.0047188
 1,-0.00002818,-0.00003397,-0.00010041,0.00001775,-0.00001212,-0.000012
 83,-0.00006233,-0.00002079,0.00000260,-0.01792373,0.00066278,0.0115499
 1,0.00000103,0.00002379,0.00000707,0.00000869,0.00001973,0.00000496,0.
 00006733,0.00002888,0.00003484,-0.25533175,-0.00633303,0.10616449,-0.0
 0001088,0.00000193,0.00000246,-0.00001850,-0.00000893,0.00001282,-0.00
 150640,-0.00074177,0.00055455,0.00001436,-0.00001729,0.00002453,0.0000
 2576,0.00002086,0.00001504,0.00002849,0.00008079,-0.00003153,-0.000081
 35,-0.00010265,-0.00009372,0.00000960,0.00000502,-0.00000492,0.0000019
 3,-0.00000870,-0.00001403,-0.00000391,-0.00002801,-0.00000544,-0.00000
 372,-0.00000024,0.00001202,0.00000385,0.00000963,0.00001350,0.00001519
 ,-0.00000322,-0.00003066,-0.00000159,0.00001779,0.00003244,-0.00003129
 ,0.00002778,-0.00006283,0.00043850,-0.00006437,-0.00027349,0.00009248,
 -0.00012263,0.00010411,0.00000539,0.00000307,0.00001400,-0.00005937,0.
 00000286,0.00000821,-0.00000155,-0.00001949,-0.00000152,-0.00000400,0.
 00000231,0.00000634,0.00003441,-0.00000376,0.00000150,0.00001848,-0.00
 000547,0.00000199,0.00074660,-0.00034795,0.00011464,0.00004171,0.00051
 806,-0.00033501,0.00001583,-0.00000784,-0.00002080,-0.00001581,-0.0000
 1235,0.00000505,-0.00000213,-0.00001032,0.00000183,0.00000610,-0.00000
 180,-0.00000533,-0.00004112,-0.00000782,0.00000179,0.00003475,-0.00002
 036,-0.00000072,-0.00754303,-0.00079699,0.00350574,0.27936197,0.001297
 02,0.00062638,-0.00028904,0.00100523,-0.00022737,-0.00077115,-0.000199
 82,-0.00012805,-0.00035222,-0.00077256,0.00047260,0.00079735,-0.000096
 00,0.00004277,0.00011481,0.00000843,-0.00002090,0.00000227,-0.00000815
 ,0.00002919,-0.00000165,0.00001183,0.00005548,0.00000133,-0.00155395,-
 0.00123633,-0.00309699,-0.00002281,-0.00002209,-0.00005186,0.00000886,
 -0.00001317,-0.00000068,-0.00006838,0.00000291,0.00003015,-0.01341340,
 -0.00119783,0.00847152,-0.00000419,0.00001081,0.00000060,0.00000289,0.
 00001350,-0.00000186,0.00014922,0.00004598,0.00002454,-0.00518457,-0.0
 4540932,0.00369177,0.00000038,0.00000048,0.00000145,-0.00000253,-0.000
 00215,0.00000739,-0.00233159,-0.00140176,0.00104444,0.00000598,-0.0000
 0581,0.00001647,0.00000220,0.00002114,0.00000214,-0.00000396,0.0000092
 6,-0.00003131,0.00007296,-0.00003008,0.00003767,0.00000572,0.00000012,
 0.00000216,0.00000229,-0.00000518,-0.00000508,0.00000034,-0.00000645,-
 0.00000243,-0.00000106,0.00000012,0.00000324,0.00000257,0.00000268,0.0
 0000815,0.00000371,-0.00000195,-0.00001205,-0.00000287,0.00000040,0.00
 001392,-0.00001983,0.00002926,-0.00001894,-0.00017582,0.00033731,0.000
 21458,0.00034688,0.00015783,-0.00010389,0.00000190,0.00000054,0.000003
 96,-0.00002539,0.00000476,0.00000611,-0.00000133,-0.00000774,-0.000000
 76,-0.00000185,0.00000136,0.00000251,0.00004086,0.00001990,0.00000591,
 0.00002129,-0.00000066,-0.00000825,0.00029285,0.00000100,0.00052734,0.
 00054494,0.00029079,-0.00007996,0.00000500,-0.00000451,-0.00000636,-0.
 00000413,-0.00000599,0.00000198,0.00000409,-0.00000440,0.00000015,0.00
 000145,-0.00000245,-0.00000122,-0.00002186,-0.00000707,-0.00004293,0.0
 0002569,-0.00000654,-0.00001448,0.02687997,0.00201235,-0.01388956,0.00
 685458,0.04784974,-0.00081963,-0.00174637,0.00026678,-0.00084871,0.000
 36338,0.00073898,-0.00020964,-0.00010650,-0.00030102,-0.00095119,-0.00
 014489,0.00082520,-0.00008352,0.00002815,0.00008406,-0.00001435,0.0000
 1096,-0.00001026,-0.00000193,-0.00000462,0.00000472,0.00001270,-0.0000
 2546,0.00001818,-0.00190331,-0.00190272,-0.00234307,-0.00002455,-0.000
 01011,-0.00003593,-0.00000095,0.00000178,-0.00000437,0.00001777,-0.000
 01254,-0.00006943,-0.01872194,0.00033520,0.01055812,-0.00000127,0.0000
 0046,-0.00000547,-0.00000080,-0.00000090,0.00000118,-0.00016098,-0.000
 09162,0.00005658,0.10739362,0.00438634,-0.10259337,0.00000036,0.000000
 86,0.00000154,-0.00000109,-0.00000088,0.00000111,0.00193676,0.00085775
 ,-0.00092593,0.00001765,-0.00001425,-0.00000383,0.00000386,0.00002307,
 0.00000041,0.00006358,0.00006202,0.00002865,0.00004275,-0.00001785,0.0
 0003462,0.00000122,0.00000570,-0.00000484,0.00000464,-0.00000155,0.000
 00392,0.00000359,0.00000231,0.00000242,0.00000360,0.00000021,-0.000000
 93,-0.00000135,0.00000096,-0.00000044,-0.00000018,0.00000444,-0.000002
 89,-0.00000555,-0.00000146,-0.00001057,0.00000016,0.00000464,-0.000001
 53,-0.00009914,0.00020802,-0.00019661,-0.00025897,-0.00029738,0.000086
 47,-0.00000037,0.00000385,0.00000130,-0.00001573,0.00000351,0.00000518
 ,-0.00000025,0.00000018,0.00000108,0.00000020,-0.00000106,0.00000051,-
 0.00002298,-0.00001613,0.00000319,0.00000316,0.00000695,0.00000210,0.0
 0086321,0.00017603,0.00076122,0.00042516,0.00068237,0.00045046,0.00000
 240,-0.00000019,-0.00000086,-0.00000147,-0.00000073,0.00000084,-0.0000
 0068,-0.00000003,-0.00000024,0.00000019,0.00000028,0.00000007,-0.00001
 289,-0.00002305,-0.00001867,-0.00001505,0.00002442,0.00001100,0.003515
 78,0.00065185,-0.00320602,-0.11443840,-0.00313254,0.10726840,-0.000918
 36,-0.00065784,0.00030991,-0.00105327,0.00024179,0.00045167,0.00000792
 ,-0.00005606,0.00013088,-0.00019172,0.00005257,-0.00005200,0.00002484,
 -0.00000258,-0.00001939,-0.00000372,0.00001021,-0.00000110,0.00000407,
 -0.00001739,-0.00000395,-0.00001921,-0.00004353,-0.00002474,0.00138915
 ,0.00096200,-0.00088014,0.00000461,0.00000219,0.00001213,-0.00000428,0
 .00000544,-0.00000004,0.00002506,-0.00000430,-0.00002324,-0.00326684,0
 .01166680,-0.02134651,-0.00000408,-0.00000470,-0.00000515,-0.00000304,
 -0.00000492,-0.00000042,-0.00007473,-0.00011156,0.00007494,-0.04939267
 ,0.00974581,-0.01503800,0.00000004,0.00000036,0.00000428,0.00000419,-0
 .00000123,-0.00000154,0.00154608,0.00093290,-0.00070807,-0.00005204,-0
 .00001376,0.00002383,-0.00001583,0.00001226,-0.00000477,0.00008549,-0.
 00012675,0.00025857,0.00008066,0.00005728,0.00004240,0.00000752,-0.000
 00383,0.00000687,0.00000401,0.00000219,0.00000419,0.00000175,0.0000055
 4,0.00000383,0.00000020,-0.00000948,0.00000392,0.00000162,0.00000263,0
 .00000270,-0.00000752,0.00000558,0.00000153,0.00000532,0.00002182,0.00
 002107,0.00000838,-0.00001821,-0.00002182,-0.00004919,0.00030213,0.000
 13664,-0.00029872,-0.00063481,0.00031074,-0.00000062,0.00000097,-0.000
 00181,0.00000704,-0.00000023,-0.00000025,0.00000084,0.00000455,0.00000
 097,0.00000005,-0.00000263,0.00000115,-0.00002780,-0.00000928,0.000001
 65,-0.00000371,-0.00000888,-0.00000056,0.00064598,-0.00007397,0.000753
 72,-0.00291179,-0.00266049,-0.00270178,-0.00000094,0.00000300,0.000002
 01,0.00000015,0.00000152,0.00000004,-0.00000118,0.00000167,-0.00000049
 ,-0.00000001,0.00000144,0.00000173,-0.00001818,0.00002075,0.00002724,-
 0.00000529,0.00000017,0.00000655,-0.00175077,0.00426277,-0.00898054,0.
 00406469,-0.01440075,0.02466228,0.05375179,-0.00060403,-0.00082719,0.0
 0019674,-0.00071554,-0.00166730,0.00128908,0.00003598,-0.00001322,0.00
 008214,0.00007159,-0.00004513,-0.00018766,0.00002506,-0.00000402,-0.00
 000717,-0.00000805,-0.00000811,0.00002138,-0.00000565,0.00002390,-0.00
 000565,0.00002690,-0.00000050,-0.00004385,0.00055507,0.00075255,-0.000
 27529,0.00000364,-0.00000113,0.00000094,0.00000510,-0.00001221,0.00000
 600,-0.00002740,-0.00001913,0.00002524,-0.00154651,0.00808442,-0.01423
 956,-0.00000015,0.00000655,0.00000635,0.00000156,0.00001012,-0.0000019
 2,-0.00016350,0.00007218,0.00005629,0.01061317,-0.10363596,0.10970094,
 0.00000466,-0.00000007,-0.00000291,0.00000144,0.00000094,0.00000224,0.
 00182792,-0.00123757,-0.00222633,-0.00002377,0.00001238,0.00001773,0.0
 0000331,-0.00001371,0.00000685,-0.00001048,-0.00009061,0.00007417,-0.0
 0002818,0.00000014,-0.00005442,0.00000187,-0.00000166,-0.00000183,-0.0
 0000397,-0.00000138,-0.00000585,0.00000957,0.00000807,0.00000023,-0.00
 000325,-0.00000242,0.00000095,0.00000351,0.00000212,0.00000556,-0.0000
 0303,-0.00000231,-0.00000380,0.00000788,0.00001488,0.00002385,-0.00004
 762,0.00002939,-0.00000035,0.00014997,-0.00020500,0.00023298,0.0000569
 0,-0.00008014,0.00034186,-0.00000002,-0.00000386,0.00000247,0.00000068
 ,0.00000031,-0.00000180,-0.00000036,-0.00000336,-0.00000102,-0.0000014
 9,0.00000135,-0.00000012,0.00002272,0.00002439,0.00002052,-0.00000132,
 -0.00003227,-0.00000327,0.00076488,0.00034661,0.00003927,-0.00249691,-
 0.00080827,-0.00213190,-0.00000166,-0.00000201,-0.00000213,0.00000132,
 -0.00000267,-0.00000009,0.00000610,-0.00000228,-0.00000031,0.00000017,
 -0.00000305,-0.00000074,0.00000904,0.00000675,0.00001898,0.00000225,0.
 00005064,0.00005975,0.00147674,-0.01339675,0.02630984,0.00001832,-0.00
 095093,-0.00208095,-0.01109149,0.11340220,-0.00031976,0.00108923,0.000
 21573,-0.00001476,0.00236092,-0.00026324,-0.00001036,-0.00006489,0.000
 01968,-0.00002856,-0.00014425,0.00015046,0.00001113,0.00001662,0.00001
 710,0.00002108,-0.00002251,0.00002047,-0.00000843,0.00003039,-0.000008
 17,-0.00001397,0.00003735,-0.00005700,0.00121844,0.00017900,0.00078484
 ,0.00000447,-0.00000669,-0.00001727,0.00001110,-0.00001435,0.00000067,
 -0.00007782,-0.00001770,0.00008511,-0.00277516,0.00929411,-0.01815406,
 -0.00000475,0.00001192,0.00000335,0.00000305,0.00001456,-0.00000321,0.
 00022663,-0.00009091,0.00024970,-0.01666314,0.10768087,-0.24551255,-0.
 00000042,-0.00000062,0.00000349,-0.00000246,-0.00000322,0.00000847,-0.
 00021868,-0.00152015,-0.00078712,-0.00003534,0.00000092,0.00002547,0.0
 0000226,0.00000230,0.00000112,0.00023047,-0.00003703,0.00013883,0.0000
 1009,0.00000558,-0.00002890,0.00000457,-0.00000680,0.00000366,-0.00000
 317,-0.00000155,-0.00000936,0.00000193,-0.00000478,-0.00000173,-0.0000
 0977,-0.00001057,0.00001172,0.00000696,0.00000517,0.00001474,0.0000027
 0,-0.00000050,-0.00001321,0.00001502,0.00003113,0.00006311,-0.00006773
 ,0.00001054,-0.00006233,-0.00026159,-0.00008213,-0.00000441,-0.0008085
 7,-0.00014721,0.00034985,0.00000145,-0.00000305,0.00000350,-0.00001184
 ,0.00000071,0.00000123,-0.00000119,-0.00000851,-0.00000145,-0.00000349
 ,0.00000042,0.00000468,0.00004940,0.00003346,0.00001892,0.00000250,-0.
 00005303,-0.00000535,0.00033832,-0.00001217,0.00015186,-0.00264033,-0.
 00245090,-0.00096351,0.00000442,-0.00000378,-0.00000768,-0.00000498,-0
 .00000643,0.00000183,0.00000422,-0.00000518,0.00000035,0.00000266,-0.0
 0000231,-0.00000057,0.00000352,0.00013668,0.00012322,0.00003596,-0.000
 01074,-0.00001990,0.00056103,-0.00349832,0.00616589,-0.00236079,0.0054
 4138,-0.01056933,0.02207494,-0.11714585,0.26765806,-0.03989233,-0.0123
 2577,0.01104012,0.00126332,0.00661943,0.00106861,0.00002213,0.00003290
 ,0.00009938,0.00002483,-0.00006903,-0.00011785,0.00001895,-0.00001807,
 -0.00006023,-0.00006319,0.00000765,0.00001111,0.00000989,-0.00000418,-
 0.00000963,0.00020003,-0.00007476,-0.00003769,-0.00005690,0.00004846,0
 .00013395,-0.00000287,0.00001454,0.00003482,-0.00000805,-0.00000353,0.
 00001298,0.00055959,-0.00117962,-0.00119782,-0.00037367,-0.00034624,0.
 00007299,-0.00000462,-0.00001557,-0.00000845,-0.00000689,-0.00000842,-
 0.00000597,-0.00385519,-0.00338683,0.00349669,0.00016339,-0.00003301,-
 0.00168920,0.00001699,-0.00000019,-0.00000370,0.00001818,0.00000760,-0
 .00000658,-0.00296705,-0.03545843,-0.03509440,-0.00000152,0.00000075,-
 0.00001508,-0.00000991,0.00000027,-0.00000404,0.00000589,0.00000441,0.
 00001458,0.00001094,0.00002357,0.00002256,-0.00000286,0.00000112,0.000
 00007,0.00000241,0.00000418,0.00001113,0.00002923,0.00006244,0.0000195
 7,-0.00000175,-0.00001107,-0.00000828,-0.00000221,-0.00000685,-0.00000
 567,-0.00002175,0.00001033,0.00001607,-0.00000691,0.00001411,-0.000011
 45,-0.00009588,0.00007559,0.00003461,0.00000555,-0.00001068,-0.0000108
 2,-0.00005981,-0.00001665,0.00000573,-0.00000525,-0.00000146,-0.000009
 06,0.00003222,0.00000231,0.00000083,0.00000075,0.00001632,0.00000315,0
 .00000078,-0.00000268,-0.00000456,-0.00042412,-0.00023418,0.00017412,0
 .00004698,-0.00003282,0.00003043,-0.00009992,-0.00012068,-0.00019907,0
 .00026637,-0.00000711,0.00018607,-0.00001255,0.00000573,0.00001714,0.0
 0001433,0.00000729,-0.00000358,0.00000870,0.00000796,-0.00000291,-0.00
 000566,-0.00000134,0.00000531,-0.00001825,0.00038155,0.00038087,0.0003
 4970,-0.00019432,-0.00007925,0.00052177,-0.00049704,0.00059414,0.00016
 168,0.00071763,-0.00035778,-0.00159594,0.00107704,0.00149876,0.0458404
 8,-0.03763796,-0.24733050,-0.23020124,0.00805327,0.00175391,0.00098722
 ,-0.00004376,-0.00002386,-0.00011627,-0.00013616,0.00001086,0.00022042
 ,-0.00002464,0.00002157,0.00005035,-0.00003508,0.00000208,0.00000156,-
 0.00002140,0.00004703,0.00000978,-0.00002288,-0.00004375,0.00000761,-0
 .00011618,-0.00012673,-0.00058271,-0.00000494,-0.00000806,-0.00003603,
 0.00000942,-0.00002448,-0.00000274,0.00009567,-0.00009327,-0.00113906,
 -0.00018068,0.00109639,0.00047989,-0.00000479,0.00002073,0.00000951,0.
 00000127,0.00002665,-0.00000227,-0.00462404,0.00084229,0.00162004,0.00
 059840,-0.00075097,-0.00018202,0.00000472,-0.00000038,0.00000206,0.000
 00053,-0.00000542,0.00001312,-0.01166647,-0.02590022,-0.02423699,-0.00
 001404,-0.00000677,0.00002914,0.00001923,-0.00001615,-0.00000277,0.000
 03514,-0.00001801,0.00003213,-0.00003267,-0.00003814,-0.00005688,0.000
 00347,-0.00000498,0.00000916,-0.00000611,-0.00000789,-0.00001619,0.000
 02420,0.00000949,-0.00000287,-0.00002223,-0.00001990,0.00002621,0.0000
 1239,0.00000542,0.00002289,-0.00000181,-0.00000072,-0.00002194,0.00002
 475,0.00004802,0.00010341,-0.00014687,0.00010364,-0.00011001,0.0001195
 0,-0.00007416,0.00000662,-0.00010596,0.00000214,0.00011983,0.00000375,
 -0.00001146,0.00000454,-0.00001769,0.00000211,0.00000268,-0.00000082,-
 0.00001465,-0.00000284,-0.00000650,0.00000258,0.00000863,-0.00016922,-
 0.00009147,0.00015253,0.00004033,-0.00007929,0.00003970,-0.00009230,-0
 .00020884,-0.00022357,-0.00019782,-0.00020778,-0.00019398,0.00000315,-
 0.00000555,-0.00001025,-0.00000267,-0.00001046,0.00000185,0.00000994,-
 0.00000874,-0.00000127,0.00000363,-0.00000664,-0.00000108,0.00005859,0
 .00008045,-0.00045059,0.00015227,0.00043783,0.00051011,-0.00052302,0.0
 0007958,-0.00014170,0.00003538,-0.00133994,0.00178804,0.00163236,0.000
 22433,-0.00100715,0.04491735,0.27166212,-0.01845605,-0.25506300,-0.291
 52804,0.00153106,0.00164880,-0.00562961,0.00001865,0.00001525,0.000074
 17,0.00005024,-0.00001039,-0.00012440,0.00001636,-0.00001210,-0.000038
 06,-0.00002238,0.00001467,0.00000082,0.00000443,-0.00000527,-0.0000085
 9,-0.00001196,-0.00001711,-0.00001883,0.00005942,-0.00002000,0.0002100
 7,-0.00000136,0.00000796,0.00002272,-0.00000412,-0.00000039,0.00001349
 ,0.00057222,0.00001563,0.00010748,-0.00006241,0.00016782,-0.00069903,0
 .00000243,-0.00000728,-0.00000026,-0.00000321,-0.00000456,-0.00000196,
 0.00108706,-0.00022397,0.00296231,-0.00078554,-0.00128542,0.00101879,0
 .00000540,-0.00000059,-0.00000737,0.00000913,0.00000660,-0.00000504,-0
 .00576990,0.00082476,0.01100916,0.00000232,0.00000940,-0.00001137,-0.0
 0000386,-0.00000424,-0.00000043,-0.00001109,0.00000175,-0.00000609,0.0
 0000301,0.00000809,0.00001470,-0.00000286,0.00000373,-0.00000440,0.000
 00020,0.00000033,0.00000669,0.00001231,0.00001565,0.00000265,0.0000083
 0,0.00000410,-0.00001508,-0.00000394,-0.00000272,-0.00000842,-0.000007
 40,0.00000086,0.00001144,-0.00002167,0.00000039,-0.00002865,-0.0000387
 4,-0.00000835,0.00001147,0.00002306,-0.00001400,0.00000464,-0.00000018
 ,0.00004788,-0.00001045,-0.00000162,-0.00000025,-0.00000391,0.00001594
 ,0.00000018,-0.00000196,-0.00000002,0.00000698,0.00000134,0.00000131,-
 0.00000029,-0.00000657,-0.00005062,0.00002074,0.00008619,-0.00003177,-
 0.00004703,0.00002117,-0.00014347,-0.00013742,-0.00012346,-0.00004354,
 -0.00009662,-0.00001656,-0.00000723,0.00000094,0.00000846,0.00000767,0
 .00000417,-0.00000173,0.00000457,0.00000394,-0.00000021,-0.00000341,-0
 .00000061,0.00000059,0.00028382,0.00046505,0.00038194,0.00043020,0.000
 02285,-0.00026419,0.00072236,-0.00016263,-0.00013779,0.00017563,0.0014
 3992,-0.00091271,0.00048395,-0.00011757,0.00019323,0.01995730,0.252483
 36,0.28345168\\-0.00000776,-0.00000044,-0.00000710,-0.00001365,0.00000
 479,0.00001342,-0.00000143,-0.00000116,0.00000551,-0.00000167,0.000000
 85,-0.00000714,0.00000020,-0.00000072,-0.00000381,0.00000456,0.0000115
 7,-0.00001064,-0.00000198,0.00000530,-0.00000792,-0.00000327,-0.000004
 43,0.00000270,0.00000205,0.00000068,0.00000699,0.00000166,0.00000073,0
 .00000048,-0.00000016,-0.00000557,0.00000390,0.00000241,-0.00000337,-0
 .00000078,-0.00000584,0.00000293,-0.00000592,-0.00000373,0.00000440,0.
 00000187,-0.00000470,-0.00000852,-0.00000411,-0.00000447,0.00000997,-0
 .00000279,0.00000305,0.00000219,0.00000020,0.00000476,-0.00000046,-0.0
 0000154,0.00000357,0.00000274,0.00000126,0.00002073,-0.00000866,-0.000
 00982,0.00000045,-0.00000095,0.00000126,-0.00000083,-0.00000250,-0.000
 00130,0.00000015,-0.00000058,0.00000056,0.00000088,-0.00000121,0.00000
 066,-0.00000023,-0.00000029,-0.00000124,-0.00000036,0.00000259,0.00000
 016,0.00000071,-0.00000062,0.00000262,-0.00000325,0.00000050,0.0000013
 0,-0.00000262,-0.00000062,0.00000446,0.00000058,-0.00000089,0.00000049
 ,0.00000025,0.00000217,0.00000269,0.00000269,0.00000024,-0.00000061,0.
 00000017,-0.00000171,0.00000071,-0.00000077,-0.00000230,-0.00000081,0.
 00000015,-0.00000206,0.00000040,0.00000144,-0.00000035,-0.00000164,0.0
 0000086,0.00000172,-0.00000077,-0.00000034,0.00000006,-0.00000086,0.00
 000204,0.00000298,-0.00000012,-0.00000114,0.00000079,0.00000072,-0.000
 00250,0.00000161,0.00000530,0.00000079,0.00000016,0.00000094,0.0000006
 6,-0.00000174,-0.00000329,-0.00000055,-0.00000032,-0.00000050,-0.00000
 026,0.00000095,0.00000124,0.00000036,-0.00000091,0.00000271,0.00000139
 ,-0.00000304,0.00000143,0.00000052,-0.00000136,0.00000401,0.00000010,-
 0.00000281,0.00000223,0.00000210,-0.00000534,-0.00000361,-0.00000112,-
 0.00000253,0.00000085,0.00000334,0.00000554,0.00000526\\\@


 AS FAR AS THE LAWS OF MATHEMATICS REFER TO REALITY,
 THEY ARE NOT CERTAIN; AND AS FAR AS THEY ARE CERTAIN,
 THEY DO NOT REFER TO REALITY.

                                         -- ALBERT EINSTEIN
 Job cpu time:       1 days  4 hours 43 minutes 38.4 seconds.
 Elapsed time:       0 days  1 hours 48 minutes  7.0 seconds.
 File lengths (MBytes):  RWF=   1823 Int=      0 D2E=      0 Chk=     37 Scr=      1
 Normal termination of Gaussian 16 at Fri Oct 10 08:10:55 2025.
