 Entering Gaussian System, Link 0=g16
 Input=SUAC0074.gjf
 Output=SUAC0074.log
 Initial command:
 /usr/local/g16/l1.exe "/dados_01/scratch/Gau-2612494.inp" -scrdir="/dados_01/scratch/"
 Entering Link 1 = /usr/local/g16/l1.exe PID=   2612495.
  
 Copyright (c) 1988-2017, Gaussian, Inc.  All Rights Reserved.
  
 This is part of the Gaussian(R) 16 program.  It is based on
 the Gaussian(R) 09 system (copyright 2009, Gaussian, Inc.),
 the Gaussian(R) 03 system (copyright 2003, Gaussian, Inc.),
 the Gaussian(R) 98 system (copyright 1998, Gaussian, Inc.),
 the Gaussian(R) 94 system (copyright 1995, Gaussian, Inc.),
 the Gaussian 92(TM) system (copyright 1992, Gaussian, Inc.),
 the Gaussian 90(TM) system (copyright 1990, Gaussian, Inc.),
 the Gaussian 88(TM) system (copyright 1988, Gaussian, Inc.),
 the Gaussian 86(TM) system (copyright 1986, Carnegie Mellon
 University), and the Gaussian 82(TM) system (copyright 1983,
 Carnegie Mellon University). Gaussian is a federally registered
 trademark of Gaussian, Inc.
  
 This software contains proprietary and confidential information,
 including trade secrets, belonging to Gaussian, Inc.
  
 This software is provided under written license and may be
 used, copied, transmitted, or stored only in accord with that
 written license.
  
 The following legend is applicable only to US Government
 contracts under FAR:
  
                    RESTRICTED RIGHTS LEGEND
  
 Use, reproduction and disclosure by the US Government is
 subject to restrictions as set forth in subparagraphs (a)
 and (c) of the Commercial Computer Software - Restricted
 Rights clause in FAR 52.227-19.
  
 Gaussian, Inc.
 340 Quinnipiac St., Bldg. 40, Wallingford CT 06492
  
  
 ---------------------------------------------------------------
 Warning -- This program may not be used in any manner that
 competes with the business of Gaussian, Inc. or will provide
 assistance to any competitor of Gaussian, Inc.  The licensee
 of this program is prohibited from giving any competitor of
 Gaussian, Inc. access to this program.  By using this program,
 the user acknowledges that Gaussian, Inc. is engaged in the
 business of creating and licensing software in the field of
 computational chemistry and represents and warrants to the
 licensee that it is not a competitor of Gaussian, Inc. and that
 it will not use this program in any manner prohibited above.
 ---------------------------------------------------------------
  

 Cite this work as:
 Gaussian 16, Revision B.01,
 M. J. Frisch, G. W. Trucks, H. B. Schlegel, G. E. Scuseria, 
 M. A. Robb, J. R. Cheeseman, G. Scalmani, V. Barone, 
 G. A. Petersson, H. Nakatsuji, X. Li, M. Caricato, A. V. Marenich, 
 J. Bloino, B. G. Janesko, R. Gomperts, B. Mennucci, H. P. Hratchian, 
 J. V. Ortiz, A. F. Izmaylov, J. L. Sonnenberg, D. Williams-Young, 
 F. Ding, F. Lipparini, F. Egidi, J. Goings, B. Peng, A. Petrone, 
 T. Henderson, D. Ranasinghe, V. G. Zakrzewski, J. Gao, N. Rega, 
 G. Zheng, W. Liang, M. Hada, M. Ehara, K. Toyota, R. Fukuda, 
 J. Hasegawa, M. Ishida, T. Nakajima, Y. Honda, O. Kitao, H. Nakai, 
 T. Vreven, K. Throssell, J. A. Montgomery, Jr., J. E. Peralta, 
 F. Ogliaro, M. J. Bearpark, J. J. Heyd, E. N. Brothers, K. N. Kudin, 
 V. N. Staroverov, T. A. Keith, R. Kobayashi, J. Normand, 
 K. Raghavachari, A. P. Rendell, J. C. Burant, S. S. Iyengar, 
 J. Tomasi, M. Cossi, J. M. Millam, M. Klene, C. Adamo, R. Cammi, 
 J. W. Ochterski, R. L. Martin, K. Morokuma, O. Farkas, 
 J. B. Foresman, and D. J. Fox, Gaussian, Inc., Wallingford CT, 2016.
 
 ******************************************
 Gaussian 16:  ES64L-G16RevB.01 20-Dec-2017
                10-Oct-2025 
 ******************************************
 %nprocs=16
 Will use up to   16 processors via shared memory.
 %mem=40GB
 %chk=SUAC0074.chk
 ----------------------------------------------------------------------
 # opt freq=noraman M08HX/6-311++G** scf=xqc Empiricaldispersion=pfd In
 t(Grid=ultraFine)
 ----------------------------------------------------------------------
 1/18=20,19=15,26=4,38=1/1,3;
 2/9=110,12=2,17=6,18=5,40=1/2;
 3/5=4,6=6,7=1111,11=2,25=1,30=1,71=1,74=-74,75=-5,124=11/1,2,3;
 4//1;
 5/5=2,8=3,13=1,38=5/2,8;
 6/7=2,8=2,9=2,10=2,28=1/1;
 7//1,2,3,16;
 1/18=20,19=15,26=4/3(2);
 2/9=110/2;
 99//99;
 2/9=110/2;
 3/5=4,6=6,7=1111,11=2,25=1,30=1,71=1,74=-74,75=-5,124=11/1,2,3;
 4/5=5,16=3,69=1/1;
 5/5=2,8=3,13=1,38=5/2,8;
 7//1,2,3,16;
 1/18=20,19=15,26=4/3(-5);
 2/9=110/2;
 6/7=2,8=2,9=2,10=2,19=2,28=1/1;
 99/9=1/99;
 --------
 SUAC0074
 --------
 Symbolic Z-matrix:
 Charge =  0 Multiplicity = 1
 O                     2.8998   -0.874     0.0114 
 O                    -2.8946    0.8812    0.0123 
 O                     2.138     1.267    -0.0078 
 O                    -2.1461   -1.2651   -0.0121 
 C                     0.5381   -0.5438    0.0053 
 C                    -0.5344    0.5341   -0.0057 
 C                     1.9192    0.0626   -0.005 
 C                    -1.9199   -0.062     0.0016 
 H                     0.4392   -1.1857   -0.8775 
 H                     0.4417   -1.1642    0.9035 
 H                    -0.436     1.1567   -0.9023 
 H                    -0.4342    1.1747    0.878 
 H                     3.7932   -0.4688    0.0145 
 H                    -3.7906    0.4818    0.0112 
 

 GradGradGradGradGradGradGradGradGradGradGradGradGradGradGradGradGradGrad
 Berny optimization.
 Initialization pass.
                           ----------------------------
                           !    Initial Parameters    !
                           ! (Angstroms and Degrees)  !
 --------------------------                            --------------------------
 ! Name  Definition              Value          Derivative Info.                !
 --------------------------------------------------------------------------------
 ! R1    R(1,7)                  1.3561         estimate D2E/DX2                !
 ! R2    R(1,13)                 0.981          estimate D2E/DX2                !
 ! R3    R(2,8)                  1.3564         estimate D2E/DX2                !
 ! R4    R(2,14)                 0.981          estimate D2E/DX2                !
 ! R5    R(3,7)                  1.2241         estimate D2E/DX2                !
 ! R6    R(4,8)                  1.2243         estimate D2E/DX2                !
 ! R7    R(5,6)                  1.5206         estimate D2E/DX2                !
 ! R8    R(5,7)                  1.5084         estimate D2E/DX2                !
 ! R9    R(5,9)                  1.096          estimate D2E/DX2                !
 ! R10   R(5,10)                 1.0959         estimate D2E/DX2                !
 ! R11   R(6,8)                  1.5083         estimate D2E/DX2                !
 ! R12   R(6,11)                 1.096          estimate D2E/DX2                !
 ! R13   R(6,12)                 1.0961         estimate D2E/DX2                !
 ! A1    A(7,1,13)             111.9187         estimate D2E/DX2                !
 ! A2    A(8,2,14)             111.9143         estimate D2E/DX2                !
 ! A3    A(6,5,7)              111.1471         estimate D2E/DX2                !
 ! A4    A(6,5,9)              110.2245         estimate D2E/DX2                !
 ! A5    A(6,5,10)             110.1932         estimate D2E/DX2                !
 ! A6    A(7,5,9)              108.2148         estimate D2E/DX2                !
 ! A7    A(7,5,10)             108.2841         estimate D2E/DX2                !
 ! A8    A(9,5,10)             108.7045         estimate D2E/DX2                !
 ! A9    A(5,6,8)              111.5737         estimate D2E/DX2                !
 ! A10   A(5,6,11)             110.1986         estimate D2E/DX2                !
 ! A11   A(5,6,12)             110.1202         estimate D2E/DX2                !
 ! A12   A(8,6,11)             108.1157         estimate D2E/DX2                !
 ! A13   A(8,6,12)             108.123          estimate D2E/DX2                !
 ! A14   A(11,6,12)            108.6238         estimate D2E/DX2                !
 ! A15   A(1,7,3)              123.3878         estimate D2E/DX2                !
 ! A16   A(1,7,5)              112.6024         estimate D2E/DX2                !
 ! A17   A(3,7,5)              124.0014         estimate D2E/DX2                !
 ! A18   A(2,8,4)              123.4134         estimate D2E/DX2                !
 ! A19   A(2,8,6)              112.6629         estimate D2E/DX2                !
 ! A20   A(4,8,6)              123.9209         estimate D2E/DX2                !
 ! D1    D(13,1,7,3)            -0.3834         estimate D2E/DX2                !
 ! D2    D(13,1,7,5)          -179.3713         estimate D2E/DX2                !
 ! D3    D(14,2,8,4)             0.2189         estimate D2E/DX2                !
 ! D4    D(14,2,8,6)           179.6371         estimate D2E/DX2                !
 ! D5    D(7,5,6,8)            179.8823         estimate D2E/DX2                !
 ! D6    D(7,5,6,11)            59.7672         estimate D2E/DX2                !
 ! D7    D(7,5,6,12)           -60.0461         estimate D2E/DX2                !
 ! D8    D(9,5,6,8)             59.9034         estimate D2E/DX2                !
 ! D9    D(9,5,6,11)           -60.2116         estimate D2E/DX2                !
 ! D10   D(9,5,6,12)           179.9751         estimate D2E/DX2                !
 ! D11   D(10,5,6,8)           -60.0728         estimate D2E/DX2                !
 ! D12   D(10,5,6,11)          179.8121         estimate D2E/DX2                !
 ! D13   D(10,5,6,12)           59.9989         estimate D2E/DX2                !
 ! D14   D(6,5,7,1)            179.6823         estimate D2E/DX2                !
 ! D15   D(6,5,7,3)              0.7016         estimate D2E/DX2                !
 ! D16   D(9,5,7,1)            -59.1528         estimate D2E/DX2                !
 ! D17   D(9,5,7,3)            121.8665         estimate D2E/DX2                !
 ! D18   D(10,5,7,1)            58.511          estimate D2E/DX2                !
 ! D19   D(10,5,7,3)          -120.4697         estimate D2E/DX2                !
 ! D20   D(5,6,8,2)            179.0706         estimate D2E/DX2                !
 ! D21   D(5,6,8,4)             -1.5146         estimate D2E/DX2                !
 ! D22   D(11,6,8,2)           -59.5967         estimate D2E/DX2                !
 ! D23   D(11,6,8,4)           119.8181         estimate D2E/DX2                !
 ! D24   D(12,6,8,2)            57.8306         estimate D2E/DX2                !
 ! D25   D(12,6,8,4)          -122.7546         estimate D2E/DX2                !
 --------------------------------------------------------------------------------
 Trust Radius=3.00D-01 FncErr=1.00D-07 GrdErr=1.00D-06 EigMax=2.50D+02 EigMin=1.00D-04
 Number of steps in this run=     68 maximum allowed number of steps=    100.
 GradGradGradGradGradGradGradGradGradGradGradGradGradGradGradGradGradGrad

                          Input orientation:                          
 ---------------------------------------------------------------------
 Center     Atomic      Atomic             Coordinates (Angstroms)
 Number     Number       Type             X           Y           Z
 ---------------------------------------------------------------------
      1          8           0        2.899800   -0.874000    0.011400
      2          8           0       -2.894600    0.881200    0.012300
      3          8           0        2.138000    1.267000   -0.007800
      4          8           0       -2.146100   -1.265100   -0.012100
      5          6           0        0.538100   -0.543800    0.005300
      6          6           0       -0.534400    0.534100   -0.005700
      7          6           0        1.919200    0.062600   -0.005000
      8          6           0       -1.919900   -0.062000    0.001600
      9          1           0        0.439200   -1.185700   -0.877500
     10          1           0        0.441700   -1.164200    0.903500
     11          1           0       -0.436000    1.156700   -0.902300
     12          1           0       -0.434200    1.174700    0.878000
     13          1           0        3.793200   -0.468800    0.014500
     14          1           0       -3.790600    0.481800    0.011200
 ---------------------------------------------------------------------
                    Distance matrix (angstroms):
                    1          2          3          4          5
     1  O    0.000000
     2  O    6.054403   0.000000
     3  O    2.272573   5.047406   0.000000
     4  O    5.061089   2.273203   4.976451   0.000000
     5  C    2.384679   3.716733   2.416371   2.779479   0.000000
     6  C    3.711707   2.385654   2.771077   2.415520   1.520607
     7  C    1.356121   4.882937   1.224116   4.276623   1.508398
     8  C    4.887632   1.356385   4.269998   1.224256   2.504777
     9  H    2.634740   4.022194   3.107738   2.727453   1.095971
    10  H    2.631029   4.013576   3.101392   2.746855   1.095880
    11  H    4.010755   2.637633   2.727228   3.095483   2.159701
    12  H    4.007957   2.624718   2.722016   3.110547   2.158753
    13  H    0.981000   6.822695   2.398580   5.992502   3.255977
    14  H    6.826393   0.980988   5.980401   2.399288   4.448543
                    6          7          8          9         10
     6  C    0.000000
     7  C    2.498493   0.000000
     8  C    1.508310   3.841127   0.000000
     9  H    2.160010   2.123655   2.756968   0.000000
    10  H    2.159546   2.124480   2.757793   1.781132   0.000000
    11  H    1.095995   2.747575   2.122316   2.500685   3.068851
    12  H    1.096054   2.748626   2.122453   3.068566   2.497660
    13  H    4.442335   1.947984   5.727579   3.543857   3.536447
    14  H    3.256664   5.725191   1.948160   4.632661   4.627945
                   11         12         13         14
    11  H    0.000000
    12  H    1.780392   0.000000
    13  H    4.622651   4.617102   0.000000
    14  H    3.541654   3.535092   7.643146   0.000000
 Stoichiometry    C4H6O4
 Framework group  C1[X(C4H6O4)]
 Deg. of freedom    36
 Full point group                 C1      NOp   1
 Largest Abelian subgroup         C1      NOp   1
 Largest concise Abelian subgroup C1      NOp   1
                         Standard orientation:                         
 ---------------------------------------------------------------------
 Center     Atomic      Atomic             Coordinates (Angstroms)
 Number     Number       Type             X           Y           Z
 ---------------------------------------------------------------------
      1          8           0       -2.917346   -0.813280   -0.010082
      2          8           0        2.912546    0.820167   -0.012489
      3          8           0       -2.110865    1.311299    0.008408
      4          8           0        2.119260   -1.309978    0.012619
      5          6           0       -0.549247   -0.532619   -0.004494
      6          6           0        0.545597    0.522584    0.006026
      7          6           0       -1.917340    0.102579    0.005891
      8          6           0        1.918306   -0.102408   -0.001362
      9          1           0       -0.463651   -1.176216    0.878461
     10          1           0       -0.466028   -1.155139   -0.902545
     11          1           0        0.460425    1.147345    0.902477
     12          1           0        0.458674    1.164908   -0.877828
     13          1           0       -3.802063   -0.389457   -0.013131
     14          1           0        3.799984    0.402087   -0.011443
 ---------------------------------------------------------------------
 Rotational constants (GHZ):           5.4860809           0.9296327           0.8030270
 Standard basis: 6-311++G(d,p) (5D, 7F)
 There are   226 symmetry adapted cartesian basis functions of A   symmetry.
 There are   218 symmetry adapted basis functions of A   symmetry.
   218 basis functions,   342 primitive gaussians,   226 cartesian basis functions
    31 alpha electrons       31 beta electrons
       nuclear repulsion energy       364.5538678901 Hartrees.
 NAtoms=   14 NActive=   14 NUniq=   14 SFac= 1.00D+00 NAtFMM=   60 NAOKFM=F Big=F
 Integral buffers will be    131072 words long.
 Raffenetti 2 integral format.
 Two-electron integral symmetry is turned on.
 R6APFD:  NTU= -4 IXU= 1 FactS= 1.050
 Nuclear repulsion after empirical dispersion term =      364.5451320837 Hartrees.
 One-electron integrals computed using PRISM.
 NBasis=   218 RedAO= T EigKep=  1.25D-05  NBF=   218
 NBsUse=   218 1.00D-06 EigRej= -1.00D+00 NBFU=   218
 ExpMin= 3.60D-02 ExpMax= 8.59D+03 ExpMxC= 1.30D+03 IAcc=3 IRadAn=         5 AccDes= 0.00D+00
 Harris functional with IExCor= 1009 and IRadAn=       5 diagonalized for initial guess.
 HarFok:  IExCor= 1009 AccDes= 0.00D+00 IRadAn=         5 IDoV= 1 UseB2=F ITyADJ=14
 ICtDFT=  3500011 ScaDFX=  1.000000  1.000000  1.000000  1.000000
 FoFCou: FMM=F IPFlag=           0 FMFlag=      100000 FMFlg1=           0
         NFxFlg=           0 DoJE=T BraDBF=F KetDBF=T FulRan=T
         wScrn=  0.000000 ICntrl=       500 IOpCl=  0 I1Cent=   200000004 NGrid=           0
         NMat0=    1 NMatS0=      1 NMatT0=    0 NMatD0=    1 NMtDS0=    0 NMtDT0=    0
 Petite list used in FoFCou.
 Requested convergence on RMS density matrix=1.00D-08 within  32 cycles.
 Requested convergence on MAX density matrix=1.00D-06.
 Requested convergence on             energy=1.00D-06.
 No special actions if energy rises.
 SCF Done:  E(RM08HX) =  -456.952383774     A.U. after   13 cycles
            NFock= 13  Conv=0.59D-08     -V/T= 2.0042
 QCSCF skips out because SCF is already converged.

 **********************************************************************

            Population analysis using the SCF Density.

 **********************************************************************

 Orbital symmetries:
       Occupied  (A) (A) (A) (A) (A) (A) (A) (A) (A) (A) (A) (A)
                 (A) (A) (A) (A) (A) (A) (A) (A) (A) (A) (A) (A)
                 (A) (A) (A) (A) (A) (A) (A)
       Virtual   (A) (A) (A) (A) (A) (A) (A) (A) (A) (A) (A) (A)
                 (A) (A) (A) (A) (A) (A) (A) (A) (A) (A) (A) (A)
                 (A) (A) (A) (A) (A) (A) (A) (A) (A) (A) (A) (A)
                 (A) (A) (A) (A) (A) (A) (A) (A) (A) (A) (A) (A)
                 (A) (A) (A) (A) (A) (A) (A) (A) (A) (A) (A) (A)
                 (A) (A) (A) (A) (A) (A) (A) (A) (A) (A) (A) (A)
                 (A) (A) (A) (A) (A) (A) (A) (A) (A) (A) (A) (A)
                 (A) (A) (A) (A) (A) (A) (A) (A) (A) (A) (A) (A)
                 (A) (A) (A) (A) (A) (A) (A) (A) (A) (A) (A) (A)
                 (A) (A) (A) (A) (A) (A) (A) (A) (A) (A) (A) (A)
                 (A) (A) (A) (A) (A) (A) (A) (A) (A) (A) (A) (A)
                 (A) (A) (A) (A) (A) (A) (A) (A) (A) (A) (A) (A)
                 (A) (A) (A) (A) (A) (A) (A) (A) (A) (A) (A) (A)
                 (A) (A) (A) (A) (A) (A) (A) (A) (A) (A) (A) (A)
                 (A) (A) (A) (A) (A) (A) (A) (A) (A) (A) (A) (A)
                 (A) (A) (A) (A) (A) (A) (A)
 The electronic state is 1-A.
 Alpha  occ. eigenvalues --  -19.67244 -19.67238 -19.61626 -19.61605 -10.68817
 Alpha  occ. eigenvalues --  -10.68803 -10.56258 -10.56213  -1.24194  -1.24107
 Alpha  occ. eigenvalues --   -1.14630  -1.14566  -0.92819  -0.82809  -0.73547
 Alpha  occ. eigenvalues --   -0.67991  -0.61533  -0.59114  -0.59006  -0.58355
 Alpha  occ. eigenvalues --   -0.55432  -0.54964  -0.50087  -0.49300  -0.47179
 Alpha  occ. eigenvalues --   -0.46236  -0.44062  -0.41079  -0.40765  -0.37764
 Alpha  occ. eigenvalues --   -0.36710
 Alpha virt. eigenvalues --   -0.03460  -0.02661  -0.00824  -0.00599   0.00262
 Alpha virt. eigenvalues --    0.01448   0.03130   0.03149   0.03782   0.04477
 Alpha virt. eigenvalues --    0.04573   0.05346   0.06241   0.07396   0.09150
 Alpha virt. eigenvalues --    0.09397   0.11095   0.11174   0.11821   0.12579
 Alpha virt. eigenvalues --    0.13739   0.13927   0.14523   0.14554   0.17054
 Alpha virt. eigenvalues --    0.17879   0.19724   0.20261   0.20614   0.22082
 Alpha virt. eigenvalues --    0.23830   0.24275   0.25141   0.25383   0.26176
 Alpha virt. eigenvalues --    0.26716   0.27967   0.28115   0.28822   0.29814
 Alpha virt. eigenvalues --    0.30776   0.31255   0.31888   0.32262   0.34318
 Alpha virt. eigenvalues --    0.35560   0.38684   0.38908   0.40468   0.43926
 Alpha virt. eigenvalues --    0.43997   0.45986   0.46856   0.48224   0.51332
 Alpha virt. eigenvalues --    0.54012   0.56923   0.58761   0.59255   0.61374
 Alpha virt. eigenvalues --    0.62360   0.66059   0.66276   0.67128   0.68068
 Alpha virt. eigenvalues --    0.73027   0.73175   0.74690   0.75135   0.79873
 Alpha virt. eigenvalues --    0.82745   0.89070   0.89302   0.94075   1.01952
 Alpha virt. eigenvalues --    1.06280   1.07002   1.07755   1.11194   1.13327
 Alpha virt. eigenvalues --    1.17646   1.18597   1.19737   1.19853   1.21534
 Alpha virt. eigenvalues --    1.22840   1.25202   1.25745   1.28164   1.28225
 Alpha virt. eigenvalues --    1.29594   1.33578   1.43358   1.43470   1.47618
 Alpha virt. eigenvalues --    1.52429   1.52963   1.53602   1.55117   1.55582
 Alpha virt. eigenvalues --    1.56879   1.57349   1.60029   1.60206   1.63413
 Alpha virt. eigenvalues --    1.68369   1.70626   1.74123   1.77208   1.81516
 Alpha virt. eigenvalues --    1.82193   1.86777   1.89114   1.98184   1.99327
 Alpha virt. eigenvalues --    2.04948   2.07079   2.08579   2.10875   2.11663
 Alpha virt. eigenvalues --    2.20136   2.24286   2.28274   2.40192   2.41637
 Alpha virt. eigenvalues --    2.51293   2.53576   2.55262   2.56736   2.60843
 Alpha virt. eigenvalues --    2.63030   2.63146   2.63559   2.74142   2.79655
 Alpha virt. eigenvalues --    2.80572   2.86849   2.94394   2.95384   2.95470
 Alpha virt. eigenvalues --    2.99163   3.04312   3.04387   3.10304   3.10636
 Alpha virt. eigenvalues --    3.15756   3.22209   3.23207   3.24244   3.25490
 Alpha virt. eigenvalues --    3.25564   3.40959   3.42580   3.47037   3.61742
 Alpha virt. eigenvalues --    3.62214   3.71061   3.72502   3.82551   3.85695
 Alpha virt. eigenvalues --    3.86058   3.87623   4.07651   4.11782   4.12666
 Alpha virt. eigenvalues --    4.20930   4.43598   5.05237   5.06380   5.12850
 Alpha virt. eigenvalues --    5.15163   5.30943   5.32082   5.42987   5.47302
 Alpha virt. eigenvalues --    5.67448   5.68579   5.93111   5.93891  23.80877
 Alpha virt. eigenvalues --   23.82251  23.93191  23.94605  49.87035  49.87450
 Alpha virt. eigenvalues --   49.98577  49.99745
          Condensed to atoms (all electrons):
               1          2          3          4          5          6
     1  O    8.023963   0.000187  -0.116648  -0.000530  -0.280611   0.009616
     2  O    0.000187   8.023438  -0.000550  -0.116150   0.008803  -0.279902
     3  O   -0.116648  -0.000550   8.014770  -0.000599   0.063685  -0.047898
     4  O   -0.000530  -0.116150  -0.000599   8.014608  -0.046740   0.065012
     5  C   -0.280611   0.008803   0.063685  -0.046740   8.836463  -1.091394
     6  C    0.009616  -0.279902  -0.047898   0.065012  -1.091394   8.856904
     7  C    0.246241   0.035963   0.302149   0.065036  -1.821665   0.157900
     8  C    0.035900   0.245906   0.066269   0.300851   0.146839  -1.859185
     9  H    0.004651  -0.002934  -0.000133  -0.007038   0.451325  -0.068121
    10  H    0.003856  -0.003919  -0.000978  -0.008518   0.462504  -0.061869
    11  H   -0.003747   0.003353  -0.008544  -0.001226  -0.061892   0.460383
    12  H   -0.003265   0.004965  -0.007595   0.000067  -0.067987   0.454662
    13  H    0.255470   0.000055  -0.013338   0.000122  -0.108855   0.002940
    14  H    0.000056   0.255314   0.000124  -0.013521   0.002561  -0.111713
               7          8          9         10         11         12
     1  O    0.246241   0.035900   0.004651   0.003856  -0.003747  -0.003265
     2  O    0.035963   0.245906  -0.002934  -0.003919   0.003353   0.004965
     3  O    0.302149   0.066269  -0.000133  -0.000978  -0.008544  -0.007595
     4  O    0.065036   0.300851  -0.007038  -0.008518  -0.001226   0.000067
     5  C   -1.821665   0.146839   0.451325   0.462504  -0.061892  -0.067987
     6  C    0.157900  -1.859185  -0.068121  -0.061869   0.460383   0.454662
     7  C    6.900958   0.104740  -0.054956  -0.063210   0.000353   0.001049
     8  C    0.104740   6.953322   0.004238  -0.002200  -0.063049  -0.055803
     9  H   -0.054956   0.004238   0.441009  -0.044156  -0.016799   0.008290
    10  H   -0.063210  -0.002200  -0.044156   0.442065   0.007845  -0.017497
    11  H    0.000353  -0.063049  -0.016799   0.007845   0.441749  -0.044672
    12  H    0.001049  -0.055803   0.008290  -0.017497  -0.044672   0.444104
    13  H    0.100982   0.000964   0.002082   0.001988  -0.000868  -0.000849
    14  H    0.000862   0.104142  -0.000719  -0.000961   0.001813   0.002281
              13         14
     1  O    0.255470   0.000056
     2  O    0.000055   0.255314
     3  O   -0.013338   0.000124
     4  O    0.000122  -0.013521
     5  C   -0.108855   0.002561
     6  C    0.002940  -0.111713
     7  C    0.100982   0.000862
     8  C    0.000964   0.104142
     9  H    0.002082  -0.000719
    10  H    0.001988  -0.000961
    11  H   -0.000868   0.001813
    12  H   -0.000849   0.002281
    13  H    0.431421   0.000001
    14  H    0.000001   0.432051
 Mulliken charges:
               1
     1  O   -0.175138
     2  O   -0.174528
     3  O   -0.250715
     4  O   -0.251374
     5  C   -0.493036
     6  C   -0.487335
     7  C    0.023597
     8  C    0.017066
     9  H    0.283262
    10  H    0.285051
    11  H    0.285302
    12  H    0.282251
    13  H    0.327885
    14  H    0.327711
 Sum of Mulliken charges =  -0.00000
 Mulliken charges with hydrogens summed into heavy atoms:
               1
     1  O    0.152747
     2  O    0.153183
     3  O   -0.250715
     4  O   -0.251374
     5  C    0.075278
     6  C    0.080218
     7  C    0.023597
     8  C    0.017066
 Electronic spatial extent (au):  <R**2>=           1300.3571
 Charge=             -0.0000 electrons
 Dipole moment (field-independent basis, Debye):
    X=             -0.0157    Y=              0.0026    Z=             -0.0292  Tot=              0.0333
 Quadrupole moment (field-independent basis, Debye-Ang):
   XX=            -35.1070   YY=            -57.4444   ZZ=            -44.9309
   XY=              6.2050   XZ=             -0.0029   YZ=              0.0233
 Traceless Quadrupole moment (field-independent basis, Debye-Ang):
   XX=             10.7204   YY=            -11.6170   ZZ=              0.8966
   XY=              6.2050   XZ=             -0.0029   YZ=              0.0233
 Octapole moment (field-independent basis, Debye-Ang**2):
  XXX=             -0.1076  YYY=             -0.0339  ZZZ=             -0.0094  XYY=             -0.0346
  XXY=              0.4241  XXZ=             -0.4362  XZZ=             -0.0089  YZZ=              0.0005
  YYZ=             -0.0624  XYZ=              0.2344
 Hexadecapole moment (field-independent basis, Debye-Ang**3):
 XXXX=           -784.9560 YYYY=           -273.2027 ZZZZ=            -55.5410 XXXY=             43.9224
 XXXZ=              0.3270 YYYX=             16.0953 YYYZ=             -0.1038 ZZZX=              0.0635
 ZZZY=              0.0699 XXYY=           -319.8437 XXZZ=           -220.2901 YYZZ=            -49.4461
 XXYZ=              0.1359 YYXZ=              0.0230 ZZXY=              0.1434
 N-N= 3.645451320837D+02 E-N=-1.801687431171D+03  KE= 4.550432589444D+02
 R6APFD:  NTU= -4 IXU= 1 FactS= 1.050
 Calling FoFJK, ICntrl=      2127 FMM=F ISym2X=0 I1Cent= 0 IOpClX= 0 NMat=1 NMatS=1 NMatT=0.
 ***** Axes restored to original set *****
 -------------------------------------------------------------------
 Center     Atomic                   Forces (Hartrees/Bohr)
 Number     Number              X              Y              Z
 -------------------------------------------------------------------
      1        8           0.002309050    0.008388310   -0.000714378
      2        8          -0.002115382   -0.008523242    0.000288541
      3        8          -0.002223065   -0.036670334   -0.000830946
      4        8           0.002315676    0.036751743    0.000978768
      5        6           0.000303579    0.000017674   -0.001183790
      6        6          -0.001078329    0.000773429    0.000936005
      7        6           0.015691088    0.033955720    0.002678087
      8        6          -0.015462394   -0.034580432   -0.001841371
      9        1          -0.000011248   -0.004684750    0.002448347
     10        1           0.000415017   -0.004646017   -0.002255088
     11        1          -0.000163078    0.004642955    0.002264789
     12        1          -0.000002791    0.004720021   -0.002521889
     13        1          -0.018705005   -0.000863536   -0.000197930
     14        1           0.018726883    0.000718459   -0.000049145
 -------------------------------------------------------------------
 Cartesian Forces:  Max     0.036751743 RMS     0.012460954

 GradGradGradGradGradGradGradGradGradGradGradGradGradGradGradGradGradGrad
 Berny optimization.
 FormGI is forming the generalized inverse of G from B-inverse, IUseBI=4.
 Internal  Forces:  Max     0.036555271 RMS     0.008840520
 Search for a local minimum.
 Step number   1 out of a maximum of   68
 All quantities printed in internal units (Hartrees-Bohrs-Radians)
 Mixed Optimization -- RFO/linear search
 Second derivative matrix not updated -- first step.
 ITU=  0
     Eigenvalues ---    0.00493   0.00655   0.00656   0.01056   0.01056
     Eigenvalues ---    0.02269   0.02272   0.04338   0.04383   0.05464
     Eigenvalues ---    0.05474   0.09204   0.09270   0.12661   0.12708
     Eigenvalues ---    0.16000   0.16000   0.21988   0.21994   0.24998
     Eigenvalues ---    0.24999   0.25000   0.25000   0.30308   0.31512
     Eigenvalues ---    0.31521   0.34122   0.34129   0.34132   0.34142
     Eigenvalues ---    0.51191   0.51193   0.53685   0.53739   0.93522
     Eigenvalues ---    0.93582
 RFO step:  Lambda=-8.97662048D-03 EMin= 4.93356372D-03
 Linear search not attempted -- first point.
 Iteration  1 RMS(Cart)=  0.03901995 RMS(Int)=  0.00085686
 Iteration  2 RMS(Cart)=  0.00081576 RMS(Int)=  0.00013630
 Iteration  3 RMS(Cart)=  0.00000090 RMS(Int)=  0.00013630
 Variable       Old X    -DE/DX   Delta X   Delta X   Delta X     New X
                                 (Linear)    (Quad)   (Total)
    R1        2.56270  -0.01706   0.00000  -0.03123  -0.03123   2.53147
    R2        1.85382  -0.01739   0.00000  -0.03339  -0.03339   1.82043
    R3        2.56320  -0.01736   0.00000  -0.03181  -0.03181   2.53139
    R4        1.85380  -0.01740   0.00000  -0.03340  -0.03340   1.82040
    R5        2.31324  -0.03647   0.00000  -0.03861  -0.03861   2.27464
    R6        2.31351  -0.03656   0.00000  -0.03872  -0.03872   2.27479
    R7        2.87353   0.00162   0.00000   0.00521   0.00521   2.87874
    R8        2.85046  -0.00075   0.00000  -0.00232  -0.00232   2.84814
    R9        2.07109   0.00077   0.00000   0.00221   0.00221   2.07329
   R10        2.07091   0.00075   0.00000   0.00213   0.00213   2.07304
   R11        2.85029  -0.00096   0.00000  -0.00296  -0.00296   2.84733
   R12        2.07113   0.00077   0.00000   0.00220   0.00220   2.07333
   R13        2.07124   0.00073   0.00000   0.00207   0.00207   2.07331
    A1        1.95335  -0.01287   0.00000  -0.07615  -0.07615   1.87720
    A2        1.95327  -0.01292   0.00000  -0.07645  -0.07645   1.87682
    A3        1.93988  -0.00419   0.00000  -0.01100  -0.01098   1.92890
    A4        1.92378   0.00264   0.00000   0.01912   0.01912   1.94290
    A5        1.92323   0.00292   0.00000   0.02015   0.02016   1.94339
    A6        1.88871   0.00142   0.00000   0.00869   0.00869   1.89739
    A7        1.88991   0.00098   0.00000   0.00419   0.00421   1.89412
    A8        1.89725  -0.00384   0.00000  -0.04251  -0.04252   1.85473
    A9        1.94733  -0.00573   0.00000  -0.01814  -0.01806   1.92927
   A10        1.92333   0.00310   0.00000   0.01967   0.01970   1.94303
   A11        1.92196   0.00315   0.00000   0.02156   0.02159   1.94355
   A12        1.88698   0.00162   0.00000   0.00707   0.00715   1.89412
   A13        1.88710   0.00185   0.00000   0.01052   0.01059   1.89769
   A14        1.89584  -0.00406   0.00000  -0.04208  -0.04210   1.85374
   A15        2.15352  -0.00263   0.00000  -0.00993  -0.01025   2.14328
   A16        1.96528  -0.00482   0.00000  -0.01839  -0.01872   1.94657
   A17        2.16423   0.00747   0.00000   0.02907   0.02874   2.19297
   A18        2.15397  -0.00271   0.00000  -0.01041  -0.01049   2.14348
   A19        1.96634  -0.00503   0.00000  -0.01934  -0.01943   1.94691
   A20        2.16283   0.00774   0.00000   0.02997   0.02988   2.19271
    D1       -0.00669   0.00044   0.00000   0.02144   0.02098   0.01428
    D2       -3.13062  -0.00055   0.00000  -0.02481  -0.02435   3.12822
    D3        0.00382  -0.00026   0.00000  -0.01213  -0.01189  -0.00807
    D4        3.13526   0.00025   0.00000   0.01184   0.01159  -3.13633
    D5        3.13954   0.00001   0.00000  -0.00045  -0.00045   3.13909
    D6        1.04313  -0.00036   0.00000  -0.01066  -0.01062   1.03251
    D7       -1.04800   0.00070   0.00000   0.01537   0.01535  -1.03265
    D8        1.04551  -0.00078   0.00000  -0.01680  -0.01681   1.02871
    D9       -1.05089  -0.00116   0.00000  -0.02701  -0.02698  -1.07787
   D10        3.14116  -0.00009   0.00000  -0.00099  -0.00101   3.14015
   D11       -1.04847   0.00045   0.00000   0.01095   0.01094  -1.03753
   D12        3.13831   0.00007   0.00000   0.00075   0.00077   3.13908
   D13        1.04718   0.00114   0.00000   0.02677   0.02674   1.07392
   D14        3.13605   0.00046   0.00000   0.02269   0.02284  -3.12430
   D15        0.01225  -0.00041   0.00000  -0.02342  -0.02356  -0.01132
   D16       -1.03241   0.00206   0.00000   0.04521   0.04536  -0.98705
   D17        2.12697   0.00118   0.00000  -0.00090  -0.00105   2.12593
   D18        1.02121  -0.00120   0.00000   0.00183   0.00198   1.02319
   D19       -2.10259  -0.00207   0.00000  -0.04428  -0.04443  -2.14702
   D20        3.12537  -0.00013   0.00000  -0.00896  -0.00904   3.11633
   D21       -0.02643   0.00032   0.00000   0.01488   0.01495  -0.01148
   D22       -1.04016   0.00123   0.00000   0.00886   0.00878  -1.03137
   D23        2.09122   0.00168   0.00000   0.03269   0.03278   2.12400
   D24        1.00933  -0.00170   0.00000  -0.03141  -0.03148   0.97785
   D25       -2.14247  -0.00125   0.00000  -0.00757  -0.00749  -2.14996
         Item               Value     Threshold  Converged?
 Maximum Force            0.036555     0.000450     NO 
 RMS     Force            0.008841     0.000300     NO 
 Maximum Displacement     0.144186     0.001800     NO 
 RMS     Displacement     0.039092     0.001200     NO 
 Predicted change in Energy=-4.661678D-03
 GradGradGradGradGradGradGradGradGradGradGradGradGradGradGradGradGradGrad

                          Input orientation:                          
 ---------------------------------------------------------------------
 Center     Atomic      Atomic             Coordinates (Angstroms)
 Number     Number       Type             X           Y           Z
 ---------------------------------------------------------------------
      1          8           0        2.864628   -0.879088    0.005711
      2          8           0       -2.862696    0.878423    0.008523
      3          8           0        2.159249    1.240488   -0.008731
      4          8           0       -2.157337   -1.241275   -0.011710
      5          6           0        0.532965   -0.545509    0.012129
      6          6           0       -0.531248    0.544360   -0.004225
      7          6           0        1.911976    0.062673    0.012962
      8          6           0       -1.910073   -0.063179   -0.008594
      9          1           0        0.440341   -1.206577   -0.858573
     10          1           0        0.434306   -1.186758    0.896712
     11          1           0       -0.430691    1.187036   -0.887747
     12          1           0       -0.440085    1.204934    0.867021
     13          1           0        3.716900   -0.430189   -0.005640
     14          1           0       -3.714835    0.429163    0.009562
 ---------------------------------------------------------------------
                    Distance matrix (angstroms):
                    1          2          3          4          5
     1  O    0.000000
     2  O    5.990918   0.000000
     3  O    2.233914   5.035009   0.000000
     4  O    5.035039   2.234068   4.979164   0.000000
     5  C    2.355412   3.682134   2.415578   2.778918   0.000000
     6  C    3.682157   2.355294   2.779099   2.415101   1.523362
     7  C    1.339594   4.843858   1.203687   4.273195   1.507168
     8  C    4.843932   1.339552   4.273046   1.203769   2.490282
     9  H    2.594495   4.001141   3.108859   2.732455   1.097139
    10  H    2.606724   3.990498   3.112359   2.746782   1.097005
    11  H    3.990771   2.610209   2.735564   3.105711   2.177182
    12  H    4.000766   2.590883   2.743126   3.115295   2.177548
    13  H    0.963331   6.708484   2.284174   5.929971   3.186072
    14  H    6.708268   0.963315   5.929877   2.283991   4.358187
                    6          7          8          9         10
     6  C    0.000000
     7  C    2.490314   0.000000
     8  C    1.506745   3.824181   0.000000
     9  H    2.177080   2.129854   2.748502   0.000000
    10  H    2.177326   2.127346   2.752838   1.755408   0.000000
    11  H    1.097158   2.750191   2.127092   2.547337   3.093123
    12  H    1.097150   2.750703   2.129713   3.093252   2.546690
    13  H    4.358499   1.871099   5.638930   3.473631   3.487415
    14  H    3.185700   5.638734   1.870801   4.549152   4.540220
                   11         12         13         14
    11  H    0.000000
    12  H    1.754885   0.000000
    13  H    4.538286   4.551449   0.000000
    14  H    3.487856   3.472901   7.481270   0.000000
 Stoichiometry    C4H6O4
 Framework group  C1[X(C4H6O4)]
 Deg. of freedom    36
 Full point group                 C1      NOp   1
 Largest Abelian subgroup         C1      NOp   1
 Largest concise Abelian subgroup C1      NOp   1
                         Standard orientation:                         
 ---------------------------------------------------------------------
 Center     Atomic      Atomic             Coordinates (Angstroms)
 Number     Number       Type             X           Y           Z
 ---------------------------------------------------------------------
      1          8           0       -2.880812   -0.820828   -0.002057
      2          8           0        2.880755    0.820930   -0.010715
      3          8           0       -2.132859    1.284113    0.010674
      4          8           0        2.132850   -1.284116    0.011228
      5          6           0       -0.542908   -0.534299   -0.010656
      6          6           0        0.543062    0.533915    0.004213
      7          6           0       -1.909385    0.101544   -0.010618
      8          6           0        1.909369   -0.101279    0.007712
      9          1           0       -0.462863   -1.196660    0.860310
     10          1           0       -0.457959   -1.177850   -0.894990
     11          1           0        0.456243    1.178931    0.887488
     12          1           0        0.464467    1.195753   -0.867297
     13          1           0       -3.723856   -0.354843    0.009794
     14          1           0        3.723668    0.354591   -0.012254
 ---------------------------------------------------------------------
 Rotational constants (GHZ):           5.5905216           0.9401556           0.8128748
 Standard basis: 6-311++G(d,p) (5D, 7F)
 There are   226 symmetry adapted cartesian basis functions of A   symmetry.
 There are   218 symmetry adapted basis functions of A   symmetry.
   218 basis functions,   342 primitive gaussians,   226 cartesian basis functions
    31 alpha electrons       31 beta electrons
       nuclear repulsion energy       367.5077338429 Hartrees.
 NAtoms=   14 NActive=   14 NUniq=   14 SFac= 1.00D+00 NAtFMM=   60 NAOKFM=F Big=F
 Integral buffers will be    131072 words long.
 Raffenetti 2 integral format.
 Two-electron integral symmetry is turned on.
 R6APFD:  NTU= -4 IXU= 1 FactS= 1.050
 Nuclear repulsion after empirical dispersion term =      367.4992346230 Hartrees.
 One-electron integrals computed using PRISM.
 NBasis=   218 RedAO= T EigKep=  1.27D-05  NBF=   218
 NBsUse=   218 1.00D-06 EigRej= -1.00D+00 NBFU=   218
 Initial guess from the checkpoint file:  "SUAC0074.chk"
 B after Tr=     0.000000   -0.000000   -0.000000
         Rot=    0.999996    0.000113    0.000050   -0.002730 Ang=   0.31 deg.
 ExpMin= 3.60D-02 ExpMax= 8.59D+03 ExpMxC= 1.30D+03 IAcc=3 IRadAn=         5 AccDes= 0.00D+00
 Harris functional with IExCor= 1009 and IRadAn=       5 diagonalized for initial guess.
 HarFok:  IExCor= 1009 AccDes= 0.00D+00 IRadAn=         5 IDoV= 1 UseB2=F ITyADJ=14
 ICtDFT=  3500011 ScaDFX=  1.000000  1.000000  1.000000  1.000000
 FoFCou: FMM=F IPFlag=           0 FMFlag=      100000 FMFlg1=           0
         NFxFlg=           0 DoJE=T BraDBF=F KetDBF=T FulRan=T
         wScrn=  0.000000 ICntrl=       500 IOpCl=  0 I1Cent=   200000004 NGrid=           0
         NMat0=    1 NMatS0=      1 NMatT0=    0 NMatD0=    1 NMtDS0=    0 NMtDT0=    0
 Petite list used in FoFCou.
 Requested convergence on RMS density matrix=1.00D-08 within  32 cycles.
 Requested convergence on MAX density matrix=1.00D-06.
 Requested convergence on             energy=1.00D-06.
 No special actions if energy rises.
 SCF Done:  E(RM08HX) =  -456.956700057     A.U. after   12 cycles
            NFock= 12  Conv=0.96D-08     -V/T= 2.0035
 QCSCF skips out because SCF is already converged.
 R6APFD:  NTU= -4 IXU= 1 FactS= 1.050
 Calling FoFJK, ICntrl=      2127 FMM=F ISym2X=0 I1Cent= 0 IOpClX= 0 NMat=1 NMatS=1 NMatT=0.
 ***** Axes restored to original set *****
 -------------------------------------------------------------------
 Center     Atomic                   Forces (Hartrees/Bohr)
 Number     Number              X              Y              Z
 -------------------------------------------------------------------
      1        8           0.001766811   -0.002108736    0.001287531
      2        8          -0.001758745    0.002070057   -0.000639273
      3        8          -0.000838827   -0.002650849    0.001618602
      4        8           0.000797633    0.002793044   -0.000774302
      5        6          -0.000690264    0.004348213    0.001197643
      6        6           0.000855710   -0.004068985   -0.000451966
      7        6          -0.000905219    0.004493314   -0.004433625
      8        6           0.000823462   -0.004757876    0.002210623
      9        1           0.000178100   -0.000848869    0.000676716
     10        1          -0.000512632   -0.001155973   -0.000552106
     11        1           0.000384910    0.001018412    0.000550111
     12        1          -0.000057728    0.000847932   -0.000665360
     13        1           0.001838626   -0.000256204   -0.000017789
     14        1          -0.001881836    0.000276520   -0.000006806
 -------------------------------------------------------------------
 Cartesian Forces:  Max     0.004757876 RMS     0.001929788

 GradGradGradGradGradGradGradGradGradGradGradGradGradGradGradGradGradGrad
 Berny optimization.
 Using GEDIIS/GDIIS optimizer.
 FormGI is forming the generalized inverse of G from B-inverse, IUseBI=4.
 Internal  Forces:  Max     0.004229603 RMS     0.001234317
 Search for a local minimum.
 Step number   2 out of a maximum of   68
 All quantities printed in internal units (Hartrees-Bohrs-Radians)
 Mixed Optimization -- RFO/linear search
 Update second derivatives using D2CorX and points    1    2
 DE= -4.32D-03 DEPred=-4.66D-03 R= 9.26D-01
 TightC=F SS=  1.41D+00  RLast= 1.96D-01 DXNew= 5.0454D-01 5.8943D-01
 Trust test= 9.26D-01 RLast= 1.96D-01 DXMaxT set to 5.05D-01
 ITU=  1  0
 Use linear search instead of GDIIS.
     Eigenvalues ---    0.00493   0.00655   0.00656   0.01040   0.01088
     Eigenvalues ---    0.02269   0.02272   0.04328   0.04333   0.05214
     Eigenvalues ---    0.05375   0.09174   0.09232   0.12659   0.12661
     Eigenvalues ---    0.16000   0.16973   0.21866   0.22349   0.24995
     Eigenvalues ---    0.24998   0.25000   0.25203   0.30334   0.31516
     Eigenvalues ---    0.31609   0.34121   0.34125   0.34132   0.34139
     Eigenvalues ---    0.51192   0.51309   0.53712   0.57579   0.87140
     Eigenvalues ---    0.93553
 RFO step:  Lambda=-6.61084385D-04 EMin= 4.93355623D-03
 Quartic linear search produced a step of -0.05523.
 Iteration  1 RMS(Cart)=  0.02199001 RMS(Int)=  0.00072932
 Iteration  2 RMS(Cart)=  0.00094124 RMS(Int)=  0.00050428
 Iteration  3 RMS(Cart)=  0.00000028 RMS(Int)=  0.00050428
 Variable       Old X    -DE/DX   Delta X   Delta X   Delta X     New X
                                 (Linear)    (Quad)   (Total)
    R1        2.53147   0.00422   0.00172   0.00293   0.00466   2.53612
    R2        1.82043   0.00151   0.00184  -0.00201  -0.00017   1.82026
    R3        2.53139   0.00423   0.00176   0.00288   0.00463   2.53602
    R4        1.82040   0.00154   0.00184  -0.00196  -0.00012   1.82029
    R5        2.27464  -0.00280   0.00213  -0.00832  -0.00619   2.26845
    R6        2.27479  -0.00290   0.00214  -0.00844  -0.00630   2.26849
    R7        2.87874  -0.00072  -0.00029  -0.00149  -0.00178   2.87696
    R8        2.84814   0.00149   0.00013   0.00413   0.00426   2.85239
    R9        2.07329  -0.00004  -0.00012   0.00021   0.00009   2.07338
   R10        2.07304   0.00028  -0.00012   0.00107   0.00095   2.07399
   R11        2.84733   0.00169   0.00016   0.00464   0.00480   2.85213
   R12        2.07333   0.00019  -0.00012   0.00084   0.00072   2.07404
   R13        2.07331  -0.00002  -0.00011   0.00024   0.00013   2.07344
    A1        1.87720   0.00197   0.00421   0.00025   0.00445   1.88165
    A2        1.87682   0.00204   0.00422   0.00062   0.00484   1.88166
    A3        1.92890   0.00162   0.00061   0.00870   0.00925   1.93816
    A4        1.94290   0.00006  -0.00106   0.00415   0.00309   1.94599
    A5        1.94339  -0.00043  -0.00111   0.00257   0.00140   1.94479
    A6        1.89739  -0.00077  -0.00048  -0.00185  -0.00236   1.89504
    A7        1.89412  -0.00007  -0.00023   0.00488   0.00460   1.89872
    A8        1.85473  -0.00052   0.00235  -0.01950  -0.01714   1.83759
    A9        1.92927   0.00160   0.00100   0.00745   0.00840   1.93767
   A10        1.94303  -0.00039  -0.00109   0.00212   0.00100   1.94402
   A11        1.94355  -0.00001  -0.00119   0.00462   0.00341   1.94695
   A12        1.89412  -0.00020  -0.00039   0.00346   0.00303   1.89716
   A13        1.89769  -0.00062  -0.00058   0.00019  -0.00044   1.89726
   A14        1.85374  -0.00048   0.00233  -0.01881  -0.01648   1.83726
   A15        2.14328   0.00015   0.00057   0.00010  -0.00147   2.14181
   A16        1.94657   0.00034   0.00103  -0.00049  -0.00158   1.94498
   A17        2.19297  -0.00045  -0.00159   0.00340  -0.00032   2.19265
   A18        2.14348   0.00009   0.00058  -0.00095  -0.00096   2.14252
   A19        1.94691   0.00031   0.00107  -0.00142  -0.00093   1.94598
   A20        2.19271  -0.00039  -0.00165   0.00313   0.00089   2.19360
    D1        0.01428  -0.00073  -0.00116  -0.05700  -0.05806  -0.04377
    D2        3.12822   0.00073   0.00134   0.05644   0.05768  -3.09729
    D3       -0.00807   0.00036   0.00066   0.02895   0.02956   0.02149
    D4       -3.13633  -0.00040  -0.00064  -0.03058  -0.03117   3.11568
    D5        3.13909  -0.00010   0.00002  -0.00265  -0.00263   3.13646
    D6        1.03251  -0.00067   0.00059  -0.01348  -0.01290   1.01961
    D7       -1.03265   0.00020  -0.00085   0.00576   0.00492  -1.02773
    D8        1.02871  -0.00027   0.00093  -0.00900  -0.00809   1.02062
    D9       -1.07787  -0.00084   0.00149  -0.01983  -0.01836  -1.09623
   D10        3.14015   0.00003   0.00006  -0.00059  -0.00053   3.13962
   D11       -1.03753   0.00063  -0.00060   0.01111   0.01051  -1.02701
   D12        3.13908   0.00006  -0.00004   0.00028   0.00024   3.13932
   D13        1.07392   0.00092  -0.00148   0.01953   0.01807   1.09199
   D14       -3.12430  -0.00083  -0.00126  -0.06092  -0.06214   3.09675
   D15       -0.01132   0.00069   0.00130   0.05636   0.05766   0.04634
   D16       -0.98705  -0.00023  -0.00251  -0.05141  -0.05389  -1.04094
   D17        2.12593   0.00129   0.00006   0.06587   0.06591   2.19183
   D18        1.02319  -0.00128  -0.00011  -0.07282  -0.07292   0.95027
   D19       -2.14702   0.00024   0.00245   0.04446   0.04687  -2.10015
   D20        3.11633   0.00049   0.00050   0.03546   0.03596  -3.13090
   D21       -0.01148  -0.00030  -0.00083  -0.02606  -0.02690  -0.03839
   D22       -1.03137   0.00090  -0.00049   0.04509   0.04462  -0.98675
   D23        2.12400   0.00010  -0.00181  -0.01643  -0.01824   2.10576
   D24        0.97785  -0.00011   0.00174   0.02481   0.02655   1.00440
   D25       -2.14996  -0.00090   0.00041  -0.03671  -0.03631  -2.18627
         Item               Value     Threshold  Converged?
 Maximum Force            0.004230     0.000450     NO 
 RMS     Force            0.001234     0.000300     NO 
 Maximum Displacement     0.088071     0.001800     NO 
 RMS     Displacement     0.021825     0.001200     NO 
 Predicted change in Energy=-3.667878D-04
 GradGradGradGradGradGradGradGradGradGradGradGradGradGradGradGradGradGrad

                          Input orientation:                          
 ---------------------------------------------------------------------
 Center     Atomic      Atomic             Coordinates (Angstroms)
 Number     Number       Type             X           Y           Z
 ---------------------------------------------------------------------
      1          8           0        2.870536   -0.878877    0.019459
      2          8           0       -2.869245    0.877915    0.009745
      3          8           0        2.167804    1.239863   -0.007016
      4          8           0       -2.165616   -1.241071   -0.003760
      5          6           0        0.536981   -0.540813   -0.004620
      6          6           0       -0.534881    0.540330   -0.001558
      7          6           0        1.918813    0.065859   -0.033643
      8          6           0       -1.916391   -0.067036    0.020236
      9          1           0        0.430757   -1.209859   -0.867701
     10          1           0        0.454324   -1.189871    0.876526
     11          1           0       -0.450139    1.190366   -0.881819
     12          1           0       -0.430702    1.208745    0.862301
     13          1           0        3.725322   -0.435240    0.038514
     14          1           0       -3.724162    0.434188    0.000735
 ---------------------------------------------------------------------
                    Distance matrix (angstroms):
                    1          2          3          4          5
     1  O    0.000000
     2  O    6.002624   0.000000
     3  O    2.232396   5.050064   0.000000
     4  O    5.049213   2.232796   4.993353   0.000000
     5  C    2.358039   3.689901   2.414621   2.791843   0.000000
     6  C    3.689371   2.358675   2.791753   2.415096   1.522422
     7  C    1.342059   4.856626   1.200413   4.288533   1.509421
     8  C    4.855281   1.342003   4.288284   1.200436   2.498823
     9  H    2.617083   4.002340   3.123980   2.736516   1.097185
    10  H    2.582511   4.009134   3.101655   2.764346   1.097509
    11  H    4.015090   2.597034   2.760680   3.102537   2.177352
    12  H    3.995838   2.604379   2.740240   3.124354   2.179200
    13  H    0.963242   6.724100   2.287773   5.945948   3.190380
    14  H    6.724175   0.963253   5.946801   2.288139   4.371269
                    6          7          8          9         10
     6  C    0.000000
     7  C    2.499354   0.000000
     8  C    1.509284   3.837884   0.000000
     9  H    2.178491   2.130122   2.757459   0.000000
    10  H    2.177878   2.133071   2.759398   1.744500   0.000000
    11  H    1.097537   2.756057   2.131821   2.556806   3.094407
    12  H    1.097216   2.762088   2.131657   3.095911   2.556723
    13  H    4.370661   1.876108   5.653745   3.503629   3.459936
    14  H    3.191047   5.655088   1.876071   4.551970   4.567748
                   11         12         13         14
    11  H    0.000000
    12  H    1.744325   0.000000
    13  H    4.574285   4.544651   0.000000
    14  H    3.474181   3.491291   7.500143   0.000000
 Stoichiometry    C4H6O4
 Framework group  C1[X(C4H6O4)]
 Deg. of freedom    36
 Full point group                 C1      NOp   1
 Largest Abelian subgroup         C1      NOp   1
 Largest concise Abelian subgroup C1      NOp   1
                         Standard orientation:                         
 ---------------------------------------------------------------------
 Center     Atomic      Atomic             Coordinates (Angstroms)
 Number     Number       Type             X           Y           Z
 ---------------------------------------------------------------------
      1          8           0       -2.886208   -0.822062   -0.018760
      2          8           0        2.886890    0.821937   -0.008558
      3          8           0       -2.142112    1.282572    0.001932
      4          8           0        2.141853   -1.282801    0.010730
      5          6           0       -0.546500   -0.529718    0.006672
      6          6           0        0.546348    0.530199    0.001390
      7          6           0       -1.916204    0.104002    0.032418
      8          6           0        1.915709   -0.104188   -0.017124
      9          1           0       -0.454241   -1.198049    0.871911
     10          1           0       -0.475730   -1.182990   -0.872392
     11          1           0        0.473514    1.184486    0.879565
     12          1           0        0.456123    1.197855   -0.864622
     13          1           0       -3.732116   -0.361821   -0.040052
     14          1           0        3.732937    0.361574    0.002690
 ---------------------------------------------------------------------
 Rotational constants (GHZ):           5.5985737           0.9347045           0.8089093
 Standard basis: 6-311++G(d,p) (5D, 7F)
 There are   226 symmetry adapted cartesian basis functions of A   symmetry.
 There are   218 symmetry adapted basis functions of A   symmetry.
   218 basis functions,   342 primitive gaussians,   226 cartesian basis functions
    31 alpha electrons       31 beta electrons
       nuclear repulsion energy       367.0982062876 Hartrees.
 NAtoms=   14 NActive=   14 NUniq=   14 SFac= 1.00D+00 NAtFMM=   60 NAOKFM=F Big=F
 Integral buffers will be    131072 words long.
 Raffenetti 2 integral format.
 Two-electron integral symmetry is turned on.
 R6APFD:  NTU= -4 IXU= 1 FactS= 1.050
 Nuclear repulsion after empirical dispersion term =      367.0897382803 Hartrees.
 One-electron integrals computed using PRISM.
 NBasis=   218 RedAO= T EigKep=  1.30D-05  NBF=   218
 NBsUse=   218 1.00D-06 EigRej= -1.00D+00 NBFU=   218
 Initial guess from the checkpoint file:  "SUAC0074.chk"
 B after Tr=     0.000000   -0.000000    0.000000
         Rot=    1.000000    0.000135   -0.000160   -0.000214 Ang=   0.03 deg.
 ExpMin= 3.60D-02 ExpMax= 8.59D+03 ExpMxC= 1.30D+03 IAcc=3 IRadAn=         5 AccDes= 0.00D+00
 Harris functional with IExCor= 1009 and IRadAn=       5 diagonalized for initial guess.
 HarFok:  IExCor= 1009 AccDes= 0.00D+00 IRadAn=         5 IDoV= 1 UseB2=F ITyADJ=14
 ICtDFT=  3500011 ScaDFX=  1.000000  1.000000  1.000000  1.000000
 FoFCou: FMM=F IPFlag=           0 FMFlag=      100000 FMFlg1=           0
         NFxFlg=           0 DoJE=T BraDBF=F KetDBF=T FulRan=T
         wScrn=  0.000000 ICntrl=       500 IOpCl=  0 I1Cent=   200000004 NGrid=           0
         NMat0=    1 NMatS0=      1 NMatT0=    0 NMatD0=    1 NMtDS0=    0 NMtDT0=    0
 Petite list used in FoFCou.
 Requested convergence on RMS density matrix=1.00D-08 within  32 cycles.
 Requested convergence on MAX density matrix=1.00D-06.
 Requested convergence on             energy=1.00D-06.
 No special actions if energy rises.
 SCF Done:  E(RM08HX) =  -456.956323113     A.U. after   12 cycles
            NFock= 12  Conv=0.39D-08     -V/T= 2.0035
 QCSCF skips out because SCF is already converged.
 R6APFD:  NTU= -4 IXU= 1 FactS= 1.050
 Calling FoFJK, ICntrl=      2127 FMM=F ISym2X=0 I1Cent= 0 IOpClX= 0 NMat=1 NMatS=1 NMatT=0.
 ***** Axes restored to original set *****
 -------------------------------------------------------------------
 Center     Atomic                   Forces (Hartrees/Bohr)
 Number     Number              X              Y              Z
 -------------------------------------------------------------------
      1        8           0.000516707   -0.002277383   -0.003935883
      2        8          -0.000302486    0.002129003    0.002075338
      3        8          -0.000170551    0.002372891   -0.004960431
      4        8           0.000298048   -0.002163632    0.002632298
      5        6          -0.000758679    0.001539900   -0.004129256
      6        6           0.000737789   -0.001613362    0.001947620
      7        6          -0.001910586   -0.000451354    0.013626546
      8        6           0.001638961    0.000523927   -0.007245403
      9        1          -0.000981292   -0.000461809   -0.000197916
     10        1           0.000958945    0.000237026    0.000062202
     11        1          -0.000596713   -0.000044600   -0.000100243
     12        1           0.000558493    0.000206954    0.000200779
     13        1           0.001464313    0.000157398   -0.000000066
     14        1          -0.001452948   -0.000154958    0.000024414
 -------------------------------------------------------------------
 Cartesian Forces:  Max     0.013626546 RMS     0.002891016

 GradGradGradGradGradGradGradGradGradGradGradGradGradGradGradGradGradGrad
 Berny optimization.
 Using GEDIIS/GDIIS optimizer.
 FormGI is forming the generalized inverse of G from B-inverse, IUseBI=4.
 Internal  Forces:  Max     0.002740983 RMS     0.001292959
 Search for a local minimum.
 Step number   3 out of a maximum of   68
 All quantities printed in internal units (Hartrees-Bohrs-Radians)
 Mixed Optimization -- RFO/linear search
 Update second derivatives using D2CorX and points    1    3    2
 DE=  3.77D-04 DEPred=-3.67D-04 R=-1.03D+00
 Trust test=-1.03D+00 RLast= 1.97D-01 DXMaxT set to 2.52D-01
 ITU= -1  1  0
 Use linear search instead of GDIIS.
     Eigenvalues ---    0.00493   0.00655   0.00655   0.01051   0.02269
     Eigenvalues ---    0.02272   0.04028   0.04237   0.04453   0.05172
     Eigenvalues ---    0.05345   0.09192   0.09335   0.12737   0.13202
     Eigenvalues ---    0.16000   0.16186   0.21727   0.21846   0.24946
     Eigenvalues ---    0.25000   0.25044   0.25123   0.30186   0.31248
     Eigenvalues ---    0.31516   0.34115   0.34125   0.34135   0.34168
     Eigenvalues ---    0.51191   0.51219   0.51421   0.53713   0.87340
     Eigenvalues ---    0.93554
 RFO step:  Lambda=-2.43519387D-04 EMin= 4.93336863D-03
 Quartic linear search produced a step of -0.67527.
 Iteration  1 RMS(Cart)=  0.01733251 RMS(Int)=  0.00033634
 Iteration  2 RMS(Cart)=  0.00056732 RMS(Int)=  0.00003498
 Iteration  3 RMS(Cart)=  0.00000011 RMS(Int)=  0.00003498
 Variable       Old X    -DE/DX   Delta X   Delta X   Delta X     New X
                                 (Linear)    (Quad)   (Total)
    R1        2.53612   0.00274  -0.00314   0.00874   0.00560   2.54172
    R2        1.82026   0.00137   0.00011   0.00309   0.00320   1.82346
    R3        2.53602   0.00262  -0.00313   0.00869   0.00556   2.54158
    R4        1.82029   0.00136   0.00008   0.00313   0.00321   1.82350
    R5        2.26845   0.00218   0.00418  -0.00294   0.00124   2.26969
    R6        2.26849   0.00200   0.00425  -0.00311   0.00114   2.26964
    R7        2.87696  -0.00142   0.00120  -0.00375  -0.00255   2.87441
    R8        2.85239  -0.00026  -0.00287   0.00433   0.00146   2.85385
    R9        2.07338   0.00053  -0.00006   0.00044   0.00038   2.07376
   R10        2.07399  -0.00016  -0.00064   0.00068   0.00004   2.07403
   R11        2.85213  -0.00034  -0.00324   0.00487   0.00163   2.85376
   R12        2.07404   0.00001  -0.00048   0.00059   0.00011   2.07416
   R13        2.07344   0.00034  -0.00009   0.00030   0.00022   2.07366
    A1        1.88165   0.00097  -0.00301   0.01223   0.00922   1.89088
    A2        1.88166   0.00097  -0.00327   0.01265   0.00938   1.89104
    A3        1.93816   0.00011  -0.00625   0.01058   0.00436   1.94251
    A4        1.94599  -0.00072  -0.00209   0.00083  -0.00126   1.94473
    A5        1.94479   0.00067  -0.00095   0.00081  -0.00010   1.94469
    A6        1.89504   0.00092   0.00159   0.00028   0.00189   1.89693
    A7        1.89872  -0.00100  -0.00311   0.00092  -0.00216   1.89657
    A8        1.83759   0.00001   0.01157  -0.01469  -0.00312   1.83447
    A9        1.93767   0.00024  -0.00567   0.01039   0.00474   1.94241
   A10        1.94402   0.00040  -0.00067   0.00027  -0.00038   1.94365
   A11        1.94695  -0.00050  -0.00230   0.00111  -0.00118   1.94577
   A12        1.89716  -0.00065  -0.00205   0.00057  -0.00146   1.89570
   A13        1.89726   0.00045   0.00030   0.00038   0.00070   1.89796
   A14        1.83726   0.00005   0.01113  -0.01396  -0.00284   1.83442
   A15        2.14181   0.00090   0.00099   0.00180   0.00291   2.14473
   A16        1.94498  -0.00010   0.00107   0.00094   0.00213   1.94712
   A17        2.19265  -0.00041   0.00022  -0.00165  -0.00131   2.19134
   A18        2.14252   0.00100   0.00065   0.00149   0.00216   2.14468
   A19        1.94598  -0.00032   0.00063   0.00044   0.00108   1.94706
   A20        2.19360  -0.00056  -0.00060  -0.00157  -0.00216   2.19144
    D1       -0.04377   0.00224   0.03921   0.00577   0.04505   0.00128
    D2       -3.09729  -0.00232  -0.03895  -0.00700  -0.04603   3.13987
    D3        0.02149  -0.00117  -0.01996  -0.00423  -0.02423  -0.00274
    D4        3.11568   0.00124   0.02105   0.00357   0.02465   3.14033
    D5        3.13646   0.00024   0.00178  -0.00121   0.00057   3.13703
    D6        1.01961   0.00063   0.00871  -0.00931  -0.00060   1.01901
    D7       -1.02773   0.00063  -0.00333   0.00730   0.00396  -1.02376
    D8        1.02062  -0.00051   0.00546  -0.00948  -0.00400   1.01661
    D9       -1.09623  -0.00013   0.01240  -0.01758  -0.00517  -1.10140
   D10        3.13962  -0.00012   0.00036  -0.00097  -0.00061   3.13900
   D11       -1.02701  -0.00050  -0.00710   0.00788   0.00078  -1.02623
   D12        3.13932  -0.00011  -0.00016  -0.00022  -0.00038   3.13894
   D13        1.09199  -0.00011  -0.01220   0.01639   0.00417   1.09616
   D14        3.09675   0.00260   0.04196   0.00605   0.04797  -3.13847
   D15        0.04634  -0.00220  -0.03893  -0.00738  -0.04631   0.00003
   D16       -1.04094   0.00239   0.03639   0.01415   0.05052  -0.99042
   D17        2.19183  -0.00241  -0.04450   0.00072  -0.04376   2.14808
   D18        0.95027   0.00237   0.04924  -0.00252   0.04670   0.99697
   D19       -2.10015  -0.00244  -0.03165  -0.01596  -0.04757  -2.14772
   D20       -3.13090  -0.00141  -0.02428   0.00011  -0.02415   3.12814
   D21       -0.03839   0.00114   0.01817   0.00829   0.02646  -0.01193
   D22       -0.98675  -0.00120  -0.03013   0.00761  -0.02252  -1.00927
   D23        2.10576   0.00135   0.01232   0.01579   0.02809   2.13384
   D24        1.00440  -0.00124  -0.01793  -0.00834  -0.02626   0.97815
   D25       -2.18627   0.00131   0.02452  -0.00016   0.02435  -2.16192
         Item               Value     Threshold  Converged?
 Maximum Force            0.002741     0.000450     NO 
 RMS     Force            0.001293     0.000300     NO 
 Maximum Displacement     0.068837     0.001800     NO 
 RMS     Displacement     0.017240     0.001200     NO 
 Predicted change in Energy=-2.352311D-04
 GradGradGradGradGradGradGradGradGradGradGradGradGradGradGradGradGradGrad

                          Input orientation:                          
 ---------------------------------------------------------------------
 Center     Atomic      Atomic             Coordinates (Angstroms)
 Number     Number       Type             X           Y           Z
 ---------------------------------------------------------------------
      1          8           0        2.876549   -0.879027    0.008125
      2          8           0       -2.874585    0.878069    0.005349
      3          8           0        2.168759    1.243367   -0.009616
      4          8           0       -2.166781   -1.244237   -0.006018
      5          6           0        0.538461   -0.538329    0.008932
      6          6           0       -0.536612    0.537667   -0.001935
      7          6           0        1.921541    0.068079    0.002468
      8          6           0       -1.919577   -0.068918   -0.001887
      9          1           0        0.444133   -1.207974   -0.855322
     10          1           0        0.444685   -1.189837    0.887178
     11          1           0       -0.440285    1.190258   -0.879182
     12          1           0       -0.444787    1.206291    0.863310
     13          1           0        3.737086   -0.442516    0.002087
     14          1           0       -3.735186    0.441607    0.003912
 ---------------------------------------------------------------------
                    Distance matrix (angstroms):
                    1          2          3          4          5
     1  O    0.000000
     2  O    6.013563   0.000000
     3  O    2.237373   5.056579   0.000000
     4  O    5.056556   2.237252   4.998510   0.000000
     5  C    2.362781   3.695278   2.415090   2.795865   0.000000
     6  C    3.695510   2.362635   2.795909   2.415087   1.521074
     7  C    1.345022   4.864043   1.201068   4.293788   1.510193
     8  C    4.864073   1.344946   4.293791   1.201042   2.502481
     9  H    2.601999   4.013256   3.114262   2.745816   1.097387
    10  H    2.604478   4.008916   3.114026   2.760527   1.097530
    11  H    4.008820   2.608769   2.750650   3.109657   2.175937
    12  H    4.013872   2.597642   2.755721   3.118666   2.177254
    13  H    0.964936   6.742266   2.302604   5.958059   3.200067
    14  H    6.742339   0.964954   5.958152   2.302620   4.384559
                    6          7          8          9         10
     6  C    0.000000
     7  C    2.502608   0.000000
     8  C    1.510144   3.843562   0.000000
     9  H    2.176556   2.132334   2.759152   0.000000
    10  H    2.176634   2.132175   2.763445   1.742594   0.000000
    11  H    1.097596   2.759494   2.131543   2.556224   3.093226
    12  H    1.097332   2.763346   2.133009   3.093953   2.556004
    13  H    4.384663   1.885978   5.668988   3.487781   3.490241
    14  H    3.200021   5.669046   1.886029   4.574506   4.573083
                   11         12         13         14
    11  H    0.000000
    12  H    1.742571   0.000000
    13  H    4.570887   4.576934   0.000000
    14  H    3.492378   3.485690   7.524395   0.000000
 Stoichiometry    C4H6O4
 Framework group  C1[X(C4H6O4)]
 Deg. of freedom    36
 Full point group                 C1      NOp   1
 Largest Abelian subgroup         C1      NOp   1
 Largest concise Abelian subgroup C1      NOp   1
                         Standard orientation:                         
 ---------------------------------------------------------------------
 Center     Atomic      Atomic             Coordinates (Angstroms)
 Number     Number       Type             X           Y           Z
 ---------------------------------------------------------------------
      1          8           0       -2.892082   -0.822692   -0.004152
      2          8           0        2.892048    0.822536   -0.007703
      3          8           0       -2.143258    1.285615    0.007848
      4          8           0        2.143222   -1.285607    0.009404
      5          6           0       -0.547826   -0.527407   -0.006559
      6          6           0        0.547916    0.527561    0.001180
      7          6           0       -1.918883    0.105726   -0.001251
      8          6           0        1.918856   -0.105730    0.002289
      9          1           0       -0.466195   -1.196509    0.859407
     10          1           0       -0.467014   -1.182889   -0.883134
     11          1           0        0.464574    1.184173    0.876754
     12          1           0        0.468768    1.195591   -0.865774
     13          1           0       -3.743989   -0.369559    0.001011
     14          1           0        3.744023    0.369470   -0.005391
 ---------------------------------------------------------------------
 Rotational constants (GHZ):           5.5868452           0.9318604           0.8064611
 Standard basis: 6-311++G(d,p) (5D, 7F)
 There are   226 symmetry adapted cartesian basis functions of A   symmetry.
 There are   218 symmetry adapted basis functions of A   symmetry.
   218 basis functions,   342 primitive gaussians,   226 cartesian basis functions
    31 alpha electrons       31 beta electrons
       nuclear repulsion energy       366.6379179309 Hartrees.
 NAtoms=   14 NActive=   14 NUniq=   14 SFac= 1.00D+00 NAtFMM=   60 NAOKFM=F Big=F
 Integral buffers will be    131072 words long.
 Raffenetti 2 integral format.
 Two-electron integral symmetry is turned on.
 R6APFD:  NTU= -4 IXU= 1 FactS= 1.050
 Nuclear repulsion after empirical dispersion term =      366.6294199104 Hartrees.
 One-electron integrals computed using PRISM.
 NBasis=   218 RedAO= T EigKep=  1.30D-05  NBF=   218
 NBsUse=   218 1.00D-06 EigRej= -1.00D+00 NBFU=   218
 Lowest energy guess from the checkpoint file:  "SUAC0074.chk"
 B after Tr=     0.000000    0.000000    0.000000
         Rot=    1.000000    0.000168   -0.000032   -0.000005 Ang=   0.02 deg.
 B after Tr=    -0.000000    0.000000   -0.000000
         Rot=    1.000000    0.000064    0.000128    0.000210 Ang=   0.03 deg.
 Requested convergence on RMS density matrix=1.00D-08 within  32 cycles.
 Requested convergence on MAX density matrix=1.00D-06.
 Requested convergence on             energy=1.00D-06.
 No special actions if energy rises.
 SCF Done:  E(RM08HX) =  -456.956890158     A.U. after   11 cycles
            NFock= 11  Conv=0.48D-08     -V/T= 2.0035
 QCSCF skips out because SCF is already converged.
 R6APFD:  NTU= -4 IXU= 1 FactS= 1.050
 Calling FoFJK, ICntrl=      2127 FMM=F ISym2X=0 I1Cent= 0 IOpClX= 0 NMat=1 NMatS=1 NMatT=0.
 ***** Axes restored to original set *****
 -------------------------------------------------------------------
 Center     Atomic                   Forces (Hartrees/Bohr)
 Number     Number              X              Y              Z
 -------------------------------------------------------------------
      1        8          -0.000396592   -0.000462746    0.000142587
      2        8           0.000333321    0.000524317   -0.000133583
      3        8          -0.000163115    0.000266325    0.000151201
      4        8           0.000174906   -0.000325641   -0.000113789
      5        6          -0.000139001   -0.000116667    0.000224245
      6        6           0.000191410    0.000116438   -0.000229027
      7        6          -0.000189126    0.000280144   -0.000447905
      8        6           0.000176290   -0.000267766    0.000375396
      9        1           0.000111705   -0.000057178   -0.000266402
     10        1           0.000097830   -0.000051930    0.000214789
     11        1          -0.000099391    0.000068740   -0.000205033
     12        1          -0.000121741    0.000027841    0.000277136
     13        1          -0.000787175    0.000169350    0.000005782
     14        1           0.000810678   -0.000171226    0.000004602
 -------------------------------------------------------------------
 Cartesian Forces:  Max     0.000810678 RMS     0.000286152

 GradGradGradGradGradGradGradGradGradGradGradGradGradGradGradGradGradGrad
 Berny optimization.
 Using GEDIIS/GDIIS optimizer.
 FormGI is forming the generalized inverse of G from B-inverse, IUseBI=4.
 Internal  Forces:  Max     0.001303867 RMS     0.000483825
 Search for a local minimum.
 Step number   4 out of a maximum of   68
 All quantities printed in internal units (Hartrees-Bohrs-Radians)
 Mixed Optimization -- En-DIIS/RFO-DIIS
 Update second derivatives using D2CorX and points    1    3    2    4
 DE= -1.90D-04 DEPred=-2.35D-04 R= 8.08D-01
 TightC=F SS=  1.41D+00  RLast= 7.93D-02 DXNew= 4.2426D-01 2.3782D-01
 Trust test= 8.08D-01 RLast= 7.93D-02 DXMaxT set to 2.52D-01
 ITU=  1 -1  1  0
 Use linear search instead of GDIIS.
     Eigenvalues ---    0.00493   0.00653   0.00655   0.01041   0.02269
     Eigenvalues ---    0.02272   0.04035   0.04206   0.04680   0.05199
     Eigenvalues ---    0.05341   0.09114   0.09375   0.12768   0.13248
     Eigenvalues ---    0.16000   0.17031   0.21841   0.22459   0.24985
     Eigenvalues ---    0.25001   0.25029   0.25787   0.29636   0.31515
     Eigenvalues ---    0.33771   0.34119   0.34131   0.34140   0.34374
     Eigenvalues ---    0.50847   0.51192   0.53701   0.54382   0.87301
     Eigenvalues ---    0.93555
 RFO step:  Lambda=-2.92266704D-05 EMin= 4.93301195D-03
 Quartic linear search produced a step of -0.15935.
 Iteration  1 RMS(Cart)=  0.00421545 RMS(Int)=  0.00000579
 Iteration  2 RMS(Cart)=  0.00000401 RMS(Int)=  0.00000501
 Iteration  3 RMS(Cart)=  0.00000000 RMS(Int)=  0.00000501
 Variable       Old X    -DE/DX   Delta X   Delta X   Delta X     New X
                                 (Linear)    (Quad)   (Total)
    R1        2.54172  -0.00063  -0.00163   0.00100  -0.00064   2.54108
    R2        1.82346  -0.00063  -0.00048  -0.00032  -0.00080   1.82266
    R3        2.54158  -0.00056  -0.00162   0.00108  -0.00055   2.54103
    R4        1.82350  -0.00065  -0.00049  -0.00034  -0.00083   1.82267
    R5        2.26969   0.00023   0.00079  -0.00057   0.00022   2.26991
    R6        2.26964   0.00028   0.00082  -0.00056   0.00026   2.26990
    R7        2.87441  -0.00106   0.00069  -0.00353  -0.00284   2.87158
    R8        2.85385  -0.00130  -0.00091  -0.00222  -0.00313   2.85072
    R9        2.07376   0.00024  -0.00007   0.00064   0.00057   2.07433
   R10        2.07403   0.00019  -0.00016   0.00059   0.00043   2.07446
   R11        2.85376  -0.00127  -0.00102  -0.00203  -0.00305   2.85071
   R12        2.07416   0.00020  -0.00013   0.00058   0.00045   2.07460
   R13        2.07366   0.00023  -0.00005   0.00059   0.00053   2.07419
    A1        1.89088  -0.00093  -0.00218  -0.00181  -0.00399   1.88689
    A2        1.89104  -0.00095  -0.00227  -0.00182  -0.00409   1.88695
    A3        1.94251  -0.00088  -0.00217  -0.00136  -0.00351   1.93900
    A4        1.94473   0.00029  -0.00029   0.00133   0.00104   1.94577
    A5        1.94469   0.00029  -0.00021   0.00150   0.00130   1.94599
    A6        1.89693   0.00019   0.00007  -0.00010  -0.00002   1.89690
    A7        1.89657   0.00023  -0.00039   0.00029  -0.00009   1.89648
    A8        1.83447  -0.00006   0.00323  -0.00169   0.00153   1.83600
    A9        1.94241  -0.00086  -0.00209  -0.00132  -0.00341   1.93900
   A10        1.94365   0.00029  -0.00010   0.00151   0.00142   1.94506
   A11        1.94577   0.00028  -0.00035   0.00125   0.00090   1.94667
   A12        1.89570   0.00022  -0.00025   0.00034   0.00010   1.89580
   A13        1.89796   0.00018  -0.00004  -0.00031  -0.00034   1.89762
   A14        1.83442  -0.00006   0.00308  -0.00151   0.00157   1.83599
   A15        2.14473   0.00074  -0.00023   0.00257   0.00235   2.14708
   A16        1.94712  -0.00099  -0.00009  -0.00294  -0.00302   1.94410
   A17        2.19134   0.00025   0.00026   0.00039   0.00067   2.19201
   A18        2.14468   0.00076  -0.00019   0.00263   0.00244   2.14712
   A19        1.94706  -0.00098  -0.00002  -0.00297  -0.00300   1.94407
   A20        2.19144   0.00022   0.00020   0.00035   0.00055   2.19199
    D1        0.00128  -0.00007   0.00207  -0.00321  -0.00114   0.00014
    D2        3.13987   0.00008  -0.00186   0.00321   0.00135   3.14122
    D3       -0.00274   0.00007  -0.00085   0.00325   0.00241  -0.00033
    D4        3.14033  -0.00005   0.00104  -0.00294  -0.00190   3.13843
    D5        3.13703   0.00001   0.00033  -0.00021   0.00012   3.13715
    D6        1.01901   0.00012   0.00215  -0.00077   0.00138   1.02039
    D7       -1.02376  -0.00017  -0.00142  -0.00066  -0.00208  -1.02584
    D8        1.01661   0.00017   0.00193  -0.00006   0.00187   1.01849
    D9       -1.10140   0.00029   0.00375  -0.00061   0.00314  -1.09826
   D10        3.13900  -0.00001   0.00018  -0.00050  -0.00032   3.13869
   D11       -1.02623  -0.00012  -0.00180   0.00026  -0.00155  -1.02778
   D12        3.13894  -0.00001   0.00002  -0.00030  -0.00028   3.13866
   D13        1.09616  -0.00030  -0.00354  -0.00019  -0.00374   1.09242
   D14       -3.13847  -0.00008   0.00226  -0.00419  -0.00193  -3.14040
   D15        0.00003   0.00008  -0.00181   0.00245   0.00064   0.00067
   D16       -0.99042  -0.00016   0.00054  -0.00349  -0.00295  -0.99337
   D17        2.14808  -0.00000  -0.00353   0.00315  -0.00038   2.14770
   D18        0.99697  -0.00002   0.00418  -0.00538  -0.00120   0.99577
   D19       -2.14772   0.00014   0.00011   0.00125   0.00137  -2.14635
   D20        3.12814   0.00006  -0.00188   0.00540   0.00352   3.13166
   D21       -0.01193  -0.00006   0.00007  -0.00099  -0.00092  -0.01285
   D22       -1.00927   0.00002  -0.00352   0.00667   0.00314  -1.00613
   D23        2.13384  -0.00011  -0.00157   0.00027  -0.00130   2.13254
   D24        0.97815   0.00016  -0.00005   0.00491   0.00486   0.98301
   D25       -2.16192   0.00003   0.00191  -0.00149   0.00042  -2.16150
         Item               Value     Threshold  Converged?
 Maximum Force            0.001304     0.000450     NO 
 RMS     Force            0.000484     0.000300     NO 
 Maximum Displacement     0.013597     0.001800     NO 
 RMS     Displacement     0.004218     0.001200     NO 
 Predicted change in Energy=-2.166037D-05
 GradGradGradGradGradGradGradGradGradGradGradGradGradGradGradGradGradGrad

                          Input orientation:                          
 ---------------------------------------------------------------------
 Center     Atomic      Atomic             Coordinates (Angstroms)
 Number     Number       Type             X           Y           Z
 ---------------------------------------------------------------------
      1          8           0        2.870791   -0.879644    0.008261
      2          8           0       -2.868836    0.878857    0.003882
      3          8           0        2.163875    1.244324   -0.010369
      4          8           0       -2.161965   -1.245188   -0.004764
      5          6           0        0.536831   -0.538978    0.008651
      6          6           0       -0.534936    0.538204   -0.001164
      7          6           0        1.917525    0.068727    0.001117
      8          6           0       -1.915624   -0.069548    0.000112
      9          1           0        0.442359   -1.207994   -0.856456
     10          1           0        0.444541   -1.190285    0.887489
     11          1           0       -0.440019    1.190835   -0.878830
     12          1           0       -0.443052    1.205920    0.865131
[...]
 ! A18   A(2,8,4)              122.9597         -DE/DX =    0.0001              !
 ! A19   A(2,8,6)              111.4008         -DE/DX =    0.0001              !
 ! A20   A(4,8,6)              125.6395         -DE/DX =   -0.0002              !
 ! D1    D(13,1,7,3)             0.0009         -DE/DX =    0.0                 !
 ! D2    D(13,1,7,5)          -179.9968         -DE/DX =    0.0                 !
 ! D3    D(14,2,8,4)             0.005          -DE/DX =    0.0                 !
 ! D4    D(14,2,8,6)          -179.9934         -DE/DX =    0.0                 !
 ! D5    D(7,5,6,8)           -179.9607         -DE/DX =    0.0                 !
 ! D6    D(7,5,6,11)            58.6762         -DE/DX =    0.0                 !
 ! D7    D(7,5,6,12)           -58.5991         -DE/DX =    0.0                 !
 ! D8    D(9,5,6,8)             58.6713         -DE/DX =    0.0                 !
 ! D9    D(9,5,6,11)           -62.6917         -DE/DX =    0.0                 !
 ! D10   D(9,5,6,12)          -179.967          -DE/DX =    0.0                 !
 ! D11   D(10,5,6,8)           -58.604          -DE/DX =    0.0                 !
 ! D12   D(10,5,6,11)         -179.9671         -DE/DX =    0.0                 !
 ! D13   D(10,5,6,12)           62.7576         -DE/DX =    0.0                 !
 ! D14   D(6,5,7,1)           -179.9553         -DE/DX =    0.0                 !
 ! D15   D(6,5,7,3)              0.047          -DE/DX =    0.0                 !
 ! D16   D(9,5,7,1)            -56.931          -DE/DX =    0.0                 !
 ! D17   D(9,5,7,3)            123.0714         -DE/DX =    0.0                 !
 ! D18   D(10,5,7,1)            57.0321         -DE/DX =    0.0                 !
 ! D19   D(10,5,7,3)          -122.9656         -DE/DX =    0.0                 !
 ! D20   D(5,6,8,2)           -179.9958         -DE/DX =    0.0                 !
 ! D21   D(5,6,8,4)              0.0059         -DE/DX =    0.0                 !
 ! D22   D(11,6,8,2)           -56.976          -DE/DX =    0.0                 !
 ! D23   D(11,6,8,4)           123.0257         -DE/DX =    0.0                 !
 ! D24   D(12,6,8,2)            56.9871         -DE/DX =    0.0                 !
 ! D25   D(12,6,8,4)          -123.0112         -DE/DX =    0.0                 !
 --------------------------------------------------------------------------------
 GradGradGradGradGradGradGradGradGradGradGradGradGradGradGradGradGradGrad


 ----------------------------------------------------------------------

 Electric dipole moment (input orientation):
 (Debye = 10**-18 statcoulomb cm , SI units = C m)
                  (au)            (Debye)         (10**-30 SI)
   Tot        0.560403D-02      0.142440D-01      0.475130D-01
   x          0.474525D-04      0.120612D-03      0.402319D-03
   y          0.000000D+00      0.000000D+00      0.000000D+00
   z          0.560383D-02      0.142435D-01      0.475113D-01

 Dipole polarizability, Alpha (input orientation).
 (esu units = cm**3 , SI units = C**2 m**2 J**-1)
 Alpha(0;0):
               (au)            (10**-24 esu)      (10**-40 SI)
   iso        0.588557D+02      0.872151D+01      0.970399D+01
   aniso      0.260197D+02      0.385573D+01      0.429008D+01
   xx         0.702456D+02      0.104093D+02      0.115819D+02
   yx        -0.143791D+00     -0.213076D-01     -0.237080D-01
   yy         0.644897D+02      0.955638D+01      0.106329D+02
   zx        -0.109084D-01     -0.161646D-02     -0.179856D-02
   zy        -0.113217D+00     -0.167770D-01     -0.186669D-01
   zz         0.418318D+02      0.619883D+01      0.689713D+01

 ----------------------------------------------------------------------

 Dipole orientation:
     8          5.42430992         -1.66242162          0.06574730
     8         -5.42093434          1.66101905         -0.04600681
     8          4.09275766          2.35050767          0.00893905
     8         -4.08894524         -2.35217289         -0.03203579
     6          1.01457694         -1.01811086          0.02529477
     6         -1.01102275          1.01671213         -0.01191597
     6          3.62344510          0.12986705          0.03133725
     6         -3.61985631         -0.13135848         -0.02959450
     1          0.85096250         -2.28378186         -1.61029058
     1          0.82805688         -2.24735764          1.68601217
     1         -0.81948840          2.24913698         -1.66983803
     1         -0.85250007          2.27921139          1.62647320
     1          7.04699197         -0.83306270          0.06792680
     1         -7.04347095          0.83150893         -0.06003971

 Electric dipole moment (dipole orientation):
 (Debye = 10**-18 statcoulomb cm , SI units = C m)
                  (au)            (Debye)         (10**-30 SI)
   Tot        0.560404D-02      0.142441D-01      0.475131D-01
   x          0.000000D+00      0.000000D+00      0.000000D+00
   y          0.000000D+00      0.000000D+00      0.000000D+00
   z          0.560404D-02      0.142441D-01      0.475131D-01

 Dipole polarizability, Alpha (dipole orientation).
 (esu units = cm**3 , SI units = C**2 m**2 J**-1)
 Alpha(0;0):
               (au)            (10**-24 esu)      (10**-40 SI)
   iso        0.588557D+02      0.872151D+01      0.970399D+01
   aniso      0.260197D+02      0.385573D+01      0.429008D+01
   xx         0.702437D+02      0.104090D+02      0.115816D+02
   yx        -0.142468D+00     -0.211116D-01     -0.234899D-01
   yy         0.644892D+02      0.955631D+01      0.106328D+02
   zx         0.229928D+00      0.340718D-01      0.379100D-01
   zy        -0.154006D+00     -0.228213D-01     -0.253921D-01
   zz         0.418341D+02      0.619918D+01      0.689751D+01

 ----------------------------------------------------------------------
 1\1\GINC-PITOMBA\Freq\RM08HX\6-311++G(d,p)\C4H6O4\VALTER\10-Oct-2025\0
 \\#N Geom=AllCheck Guess=TCheck SCRF=Check GenChk RM08HX/6-311++G(d,p)
  Freq\\SUAC0074\\0,1\O,2.8706063835,-0.879753841,0.0089485938\O,-2.868
 7317234,0.8789933981,0.0014808099\O,2.1657656936,1.2438409505,-0.01143
 61211\O,-2.1638518159,-1.244700783,-0.0008043163\C,0.5369811075,-0.538
 7796529,0.0078976812\C,-0.5350404359,0.5380271281,-0.000835408\C,1.917
 5167547,0.0687077903,0.00046633\C,-1.9156099154,-0.0694986177,0.000438
 401\H,0.4430694352,-1.2070316759,-0.8580212538\H,0.4457190664,-1.19080
 38491,0.88637815\H,-0.4411125024,1.1917305163,-0.8778562347\H,-0.44381
 05618,1.2045981285,0.8665870716\H,3.7292749773,-0.4408723307,0.0035975
 389\H,-3.7273764635,0.4400428385,0.0005587574\\Version=ES64L-G16RevB.0
 1\State=1-A\HF=-456.9569106\RMSD=4.040e-09\RMSF=6.791e-05\ZeroPoint=0.
 1066925\Thermal=0.1149931\Dipole=0.0000475,-0.0000098,0.0056038\Dipole
 Deriv=-1.1315904,0.6152702,-0.0055656,0.4452787,-0.8202233,0.0037935,-
 0.0036691,0.0036003,-0.4010381,-1.1316083,0.6152913,0.0009218,0.445261
 1,-0.8202279,-0.0005988,0.0007236,-0.0003774,-0.4010071,-0.7893455,-0.
 2237051,0.0025919,-0.0002336,-1.2107123,0.0086148,0.0003519,0.0086739,
 -0.3592115,-0.7893499,-0.2237155,-0.0002584,-0.0002308,-1.2107952,-0.0
 006608,0.0001562,-0.0009189,-0.3591277,-0.1501451,-0.0859706,0.0012839
 ,-0.2073073,-0.0631197,0.0011934,0.0012386,0.0008016,0.0970605,-0.1501
 213,-0.0859529,0.0007615,-0.2072353,-0.0631007,0.0008798,0.002873,0.00
 15617,0.0970618,1.6350265,-0.2546792,0.0011761,-0.2475194,1.7656758,-0
 .0145296,0.0010755,-0.0143179,0.2829777,1.6350186,-0.2546907,-0.001303
 9,-0.2475326,1.7657818,0.0011885,-0.0015288,0.0010129,0.28284,0.046153
 4,-0.0036888,0.0046837,0.0426461,0.0481439,-0.0442007,-0.0035206,-0.06
 0637,0.0134887,0.0448299,-0.0035178,-0.0045767,0.0425428,0.0494938,0.0
 438338,0.0032158,0.0606527,0.0110229,0.0457479,-0.003811,-0.004664,0.0
 426105,0.0496957,0.0436669,0.002618,0.060054,0.0115525,0.0452225,-0.00
 34024,0.0045913,0.0425637,0.0479216,-0.0443678,-0.0041185,-0.0612325,0
 .0129611,0.3450774,-0.0437141,0.0004414,-0.0754257,0.2307447,0.0013406
 ,0.0007933,0.0012632,0.3557038,0.3450845,-0.0437137,-0.0000831,-0.0754
 18,0.2307219,-0.0001539,-0.0002089,-0.0001368,0.3557155\Polar=70.24556
 91,-0.1437911,64.4896696,-0.0109084,-0.1132166,41.8317891\Quadrupole=6
 .8105009,-7.7240838,0.9135829,-4.3725662,0.0191918,0.0366085\PG=C01 [X
 (C4H6O4)]\NImag=0\\0.65662633,0.06688323,0.43716257,-0.00143529,-0.004
 05437,0.03855865,-0.00365411,0.00028340,0.00000074,0.65658315,0.000283
 24,0.00011131,-0.00000138,0.06694233,0.43718950,0.00000269,0.00000012,
 0.00003535,0.00032730,0.00053693,0.03851746,0.02541409,0.05310946,-0.0
 0052443,-0.00212666,0.00101009,0.00000082,0.14107171,0.04296279,-0.103
 91350,0.00129428,-0.00146429,0.00126842,0.00000097,0.14688522,0.866603
 49,-0.00042905,0.00128190,0.03034448,0.00001475,-0.00001402,0.00006283
 ,-0.00153682,-0.00844843,0.03241217,-0.00212668,0.00101018,-0.00000578
 ,0.02541164,0.05311232,0.00006429,-0.00280860,-0.00051977,0.00001779,0
 .14109263,-0.00146451,0.00126851,-0.00001046,0.04296680,-0.10392154,-0
 .00015179,-0.00051997,0.00275736,-0.00002860,0.14690155,0.86666834,0.0
 0000052,0.00000160,0.00006286,0.00006469,-0.00015291,0.03035518,-0.000
 01194,-0.00000595,-0.00031694,0.00008646,0.00085526,0.03233256,-0.0413
 3648,-0.00568037,0.00010805,-0.00589933,-0.00146446,-0.00000233,-0.001
 90046,-0.01633546,0.00018485,-0.00046675,0.00499953,0.00003611,0.50784
 350,0.02714852,0.01082256,-0.00001649,-0.00731116,-0.00064288,0.000018
 35,-0.03927806,-0.03203088,0.00063125,-0.00366244,-0.00242309,-0.00000
 969,-0.00630401,0.55710143,-0.00021524,0.00002356,0.01193573,0.0000498
 5,0.00001473,0.00132412,0.00040819,0.00060973,0.02768167,0.00005220,-0
 .00000103,-0.00107806,0.00026614,-0.00004414,0.55623576,-0.00590018,-0
 .00146432,0.00002150,-0.04131982,-0.00568346,0.00006051,-0.00046707,0.
 00499890,-0.00006352,-0.00192152,-0.01635902,0.00002207,-0.14057657,0.
 06441234,-0.00055503,0.50782018,-0.00731050,-0.00064254,0.00003138,0.0
 2714662,0.01082197,-0.00002110,-0.00366304,-0.00242261,0.00001088,-0.0
 3930249,-0.03206139,0.00007274,0.06441420,-0.15530124,0.00056140,-0.00
 629900,0.55712563,0.00006767,0.00001604,0.00132416,0.00004248,-0.00004
 177,0.01193453,0.00002312,0.00000887,-0.00107887,-0.00006707,-0.000008
 54,0.02768622,-0.00057843,0.00053831,-0.08054379,0.00000156,0.00072768
 ,0.55624140,-0.22529726,0.06083209,-0.00042475,0.00381409,-0.00194256,
 -0.00000504,-0.16105234,-0.16239878,0.00167394,0.00431040,0.00016318,0
 .00000606,-0.19119257,-0.03974556,0.00053360,-0.02948968,-0.00138517,0
 .00001678,0.64773040,0.08520082,-0.18591336,0.00108334,0.00360320,-0.0
 0044700,-0.00000009,-0.14578241,-0.72756722,0.00657680,-0.00128240,-0.
 00245441,-0.00000557,-0.03698791,-0.09234295,0.00000718,0.02040816,0.0
 1485484,-0.00016252,0.11367196,0.99733189,-0.00066865,0.00112701,-0.06
 750887,-0.00004024,0.00001456,0.00008205,0.00150716,0.00659225,-0.0822
 1192,-0.00002021,0.00004520,0.00051766,0.00049317,0.00002588,-0.095551
 12,-0.00013723,-0.00016658,-0.00191685,-0.00154773,-0.00768083,0.24037
 448,0.00381414,-0.00194262,0.00001664,-0.22527624,0.06080717,0.0000180
 2,0.00431034,0.00016314,0.00000057,-0.16105003,-0.16239457,-0.00017098
 ,-0.02948785,-0.00138540,0.00003148,-0.19116558,-0.03973784,-0.0000363
 8,-0.00735611,0.00276309,-0.00003777,0.64768041,0.00360359,-0.00044722
 ,-0.00000020,0.08517727,-0.18589574,-0.00010781,-0.00128221,-0.0024545
 7,0.00003640,-0.14577753,-0.72759310,-0.00070863,0.02040572,0.01485720
 ,-0.00005041,-0.03697794,-0.09234157,-0.00004105,0.00276315,-0.0042428
 7,0.00000101,0.11368465,0.99733627,-0.00001803,-0.00000822,0.00008221,
 0.00009067,-0.00015049,-0.06749995,0.00001841,-0.00001598,0.00051796,-
 0.00012573,-0.00069490,-0.08214800,-0.00023621,-0.00010205,-0.00191876
 ,0.00000602,-0.00005329,-0.09555069,0.00000619,0.00006212,-0.00024123,
 0.00001347,0.00074913,0.24030209,-0.00134817,0.00147152,0.00240054,0.0
 0025358,-0.00072343,-0.00015105,-0.00461099,-0.00259353,0.00434948,-0.
 00026457,-0.00158753,-0.00058007,-0.04954567,-0.01407998,-0.02253286,0
 .00185779,0.01440861,0.02049821,0.00168239,-0.01813739,-0.02989668,0.0
 0086447,0.00281267,0.00114502,0.05343980,0.00177212,0.00025623,0.00074
 439,0.00004843,0.00000250,0.00009634,-0.00264227,0.00015276,0.00155111
 ,-0.00001862,0.00049419,0.00018362,-0.01269566,-0.13745845,-0.12879557
 ,-0.00124415,-0.01395626,-0.01767163,-0.00249150,-0.01145333,-0.011511
 78,-0.00090977,-0.00032158,-0.00017486,0.01369141,0.15345018,-0.000155
 94,0.00029800,0.00028805,0.00001851,0.00061711,-0.00009286,0.00066581,
 0.00171622,-0.00083379,-0.00056273,0.00114999,0.00009978,-0.02051271,-
 0.12845563,-0.21087911,0.00136258,0.00188793,0.00212574,0.00095621,0.0
 0076612,0.00103934,-0.00037814,-0.00212628,0.00014120,0.02198943,0.139
 15999,0.22730529,-0.00136978,0.00141880,-0.00242164,0.00022278,-0.0006
 9260,0.00016024,-0.00462385,-0.00269356,-0.00428689,-0.00021707,-0.001
 56605,0.00058389,-0.04955249,-0.01331119,0.02222455,0.00178058,0.01402
 333,-0.02075295,0.00177267,-0.01757271,0.03023838,0.00089775,0.0027704
 2,-0.00115071,0.00028326,0.00219808,-0.00320063,0.05340454,0.00176640,
 0.00023801,-0.00074920,0.00005285,-0.00001335,-0.00010272,-0.00265662,
 0.00008548,-0.00156195,0.00003476,0.00045909,-0.00015411,-0.01198902,-
 0.13265706,0.12734397,-0.00125174,-0.01364284,0.01793791,-0.00247068,-
 0.01124776,0.01177409,-0.00091047,-0.00026730,0.00015925,0.00221282,0.
 01086867,-0.01576075,0.01290480,0.14824376,0.00012689,-0.00030593,0.00
 031725,-0.00002149,-0.00061330,-0.00009931,-0.00059227,-0.00172001,-0.
 00074914,0.00053950,-0.00115068,0.00013175,0.02024065,0.12704474,-0.21
 579245,-0.00131798,-0.00166107,0.00190171,-0.00094003,-0.00047459,0.00
 072518,0.00038520,0.00212113,0.00012715,0.00310618,0.01516970,-0.02114
 881,-0.02167264,-0.13771770,0.23259005,0.00024699,-0.00071101,0.000160
 87,-0.00136220,0.00144252,-0.00242163,-0.00024920,-0.00157256,0.000598
 17,-0.00456903,-0.00261182,-0.00433349,0.00184454,0.01407233,-0.020738
 30,-0.04956341,-0.01378165,0.02278122,0.00087079,0.00278486,-0.0011785
 8,0.00164986,-0.01766830,0.03020216,0.00111403,-0.00060071,0.00041589,
 -0.00403585,0.00309171,0.00042601,0.05346173,0.00004704,-0.00001168,-0
 .00009967,0.00176492,0.00023362,-0.00074996,0.00000399,0.00046845,-0.0
 0017753,-0.00263559,0.00011029,-0.00159348,-0.00126153,-0.01369822,0.0
 1793782,-0.01237557,-0.13310632,0.12743687,-0.00090873,-0.00027295,0.0
 0017542,-0.00252870,-0.01127551,0.01174120,-0.00060742,0.00016650,0.00
 001920,0.00308001,-0.00213616,-0.00063493,0.01334461,0.14874840,-0.000
 02104,-0.00061686,-0.00008800,0.00013020,-0.00028901,0.00030517,0.0005
 5380,-0.00115682,0.00012291,-0.00061810,-0.00172591,-0.00080290,-0.001
 33224,-0.00162816,0.00185678,0.02067904,0.12708771,-0.21507441,0.00039
 491,0.00213072,0.00011625,-0.00089280,-0.00055834,0.00087000,-0.000405
 02,-0.00001230,0.00062550,0.00041818,-0.00062106,0.00122660,-0.0222040
 8,-0.13779920,0.23185508,0.00022918,-0.00070483,-0.00015047,-0.0013551
 1,0.00144798,0.00240081,-0.00023232,-0.00158066,-0.00056558,-0.0046660
 0,-0.00267597,0.00430327,0.00179366,0.01436005,0.02051288,-0.04953159,
 -0.01359690,-0.02198479,0.00089123,0.00279785,0.00111718,0.00180422,-0
 .01804296,-0.02993374,-0.00403931,0.00306613,-0.00047257,0.00112004,-0
 .00061217,-0.00040695,0.00028286,0.00225276,0.00316796,0.05338142,0.00
 005413,0.00000080,0.00009926,0.00177261,0.00026106,0.00074372,0.000012
 47,0.00048436,0.00016064,-0.00266345,0.00012767,0.00152042,-0.00123436
 ,-0.01390130,-0.01767274,-0.01229759,-0.13700179,-0.12872583,-0.000911
 37,-0.00031529,-0.00015840,-0.00243309,-0.01142676,-0.01154690,0.00307
 799,-0.00211181,0.00067703,-0.00060555,0.00017050,-0.00001098,0.002159
 29,0.01087003,0.01523658,0.01323909,0.15293669,0.00001878,0.00061368,-
 0.00010425,-0.00015279,0.00031486,0.00029955,-0.00054912,0.00114397,0.
 00010938,0.00063995,0.00171083,-0.00077929,0.00134768,0.00192058,0.002
 17034,-0.02008051,-0.12843602,-0.21160904,-0.00036843,-0.00211654,0.00
 015189,0.00100163,0.00067929,0.00089663,-0.00048060,0.00069102,0.00120
 409,0.00041796,0.00001783,0.00063013,-0.00313804,-0.01569358,-0.021148
 50,0.02146694,0.13910395,0.22804920,-0.40541006,-0.17434607,0.00225288
 ,0.00011200,-0.00015947,-0.00000010,0.00699245,-0.00589792,0.00004344,
 0.00028290,0.00004646,0.00000028,-0.00089473,0.00620093,-0.00005202,-0
 .00062882,-0.00111649,0.00000986,-0.04612425,-0.01196562,0.00017296,-0
 .00055972,0.00049852,-0.00000348,0.00040723,-0.00017919,-0.00021075,0.
 00040712,-0.00017576,0.00021165,-0.00009171,0.00000363,-0.00008505,-0.
 00009181,0.00000521,0.00008474,0.44566282,-0.22104505,-0.15894436,0.00
 167947,0.00009814,0.00001266,-0.00000047,-0.00509433,-0.00337236,-0.00
 001944,-0.00010235,-0.00005919,-0.00000064,0.00316511,-0.00297869,0.00
 006406,0.00096825,0.00065354,0.00000177,0.03457875,0.02431468,-0.00023
 985,0.00024527,-0.00024424,0.00000312,0.00006557,-0.00014442,0.0001101
 6,0.00005524,-0.00015601,-0.00010440,-0.00001010,0.00005527,0.00005786
 ,-0.00001028,0.00005456,-0.00005928,0.18705088,0.14082216,0.00272539,0
 .00162210,-0.01518552,-0.00000071,-0.00000107,-0.00006208,0.00003724,-
 0.00002326,-0.00601746,0.00000104,-0.00000144,-0.00004323,-0.00002610,
 0.00006375,0.00380714,-0.00001084,0.00000179,0.00075196,-0.00030016,-0
 .00017840,0.00431731,-0.00000155,0.00000534,0.00010575,0.00059294,0.00
 052609,0.00013213,-0.00059166,-0.00052130,0.00014584,0.00003465,-0.000
 04484,-0.00000614,-0.00003483,0.00004336,-0.00000634,-0.00242484,-0.00
 149223,0.01204178,0.00011200,-0.00015947,0.00000114,-0.40540377,-0.174
 37967,-0.00045453,0.00028290,0.00004649,-0.00000113,0.00699267,-0.0058
 9807,-0.00000687,-0.00062881,-0.00111637,0.00001456,-0.00089431,0.0062
 0030,-0.00002126,-0.00055977,0.00049850,-0.00000176,-0.04612567,-0.011
 96707,-0.00001405,-0.00009384,0.00000571,0.00008503,-0.00008970,0.0000
 0312,-0.00008473,0.00040061,-0.00017942,0.00021424,0.00041354,-0.00017
 537,-0.00020820,-0.00006341,0.00003489,-0.00000057,0.44565756,0.000098
 18,0.00001266,-0.00000034,-0.22108114,-0.15898052,-0.00026250,-0.00010
 232,-0.00005917,0.00000100,-0.00509419,-0.00337273,-0.00000268,0.00096
 823,0.00065357,0.00000144,0.00316514,-0.00297941,-0.00001613,0.0002452
 2,-0.00024426,0.00000202,0.03457914,0.02431701,0.00003187,-0.00001131,
 0.00005482,-0.00005909,-0.00000904,0.00005498,0.00005804,0.00006083,-0
 .00015172,-0.00010520,0.00005991,-0.00014873,0.00010942,0.00003489,-0.
 00001361,0.00000012,0.18708645,0.14085711,0.00000130,0.00000137,-0.000
 06211,-0.00052397,-0.00023424,-0.01516203,0.00000004,0.00000417,-0.000
 04327,-0.00000159,0.00001207,-0.00601759,0.00001138,0.00001332,0.00075
 175,0.00001183,-0.00004346,0.00380793,-0.00000155,-0.00000773,0.000105
 83,0.00005059,0.00000041,0.00431563,-0.00003554,0.00004389,-0.00000654
 ,0.00003391,-0.00004425,-0.00000595,-0.00060484,-0.00051734,0.00014166
 ,0.00057989,0.00052991,0.00013622,0.00000043,-0.00000013,0.00001883,0.
 00047813,0.00024202,0.01201963\\0.00000252,0.00009953,-0.00000245,-0.0
 0002206,-0.00009096,-0.00002066,0.00010057,-0.00014241,0.00001087,-0.0
 0010276,0.00012749,-0.00005473,-0.00000719,0.00004161,0.00000225,0.000
 02826,-0.00003682,-0.00001708,-0.00012577,0.00008537,-0.00000930,0.000
 12362,-0.00007995,0.00011198,0.00001707,-0.00003666,-0.00004211,0.0000
 3067,-0.00002470,0.00004008,-0.00002116,0.00002495,-0.00005008,-0.0000
 2836,0.00003153,0.00003284,-0.00013837,-0.00000272,0.00000215,0.000142
 98,0.00000376,-0.00000376\\\@


 MAN IS A SINGULAR CREATURE.  HE HAS A SET OF GIFTS
 WHICH MAKE HIM UNIQUE AMONG THE ANIMALS: SO THAT, 
 UNLIKE THEM, HE IS NOT A FIGURE IN THE LANDSCAPE --
 HE IS A SHAPER OF THE LANDSCAPE.

                       -- JACOB BRONOWSKI
 Job cpu time:       0 days  0 hours 38 minutes 55.3 seconds.
 Elapsed time:       0 days  0 hours  2 minutes 27.0 seconds.
 File lengths (MBytes):  RWF=     72 Int=      0 D2E=      0 Chk=      5 Scr=      1
 Normal termination of Gaussian 16 at Fri Oct 10 08:15:34 2025.
