 Entering Gaussian System, Link 0=g16
 Input=SYRE0160.gjf
 Output=SYRE0160.log
 Initial command:
 /usr/local/g16/l1.exe "/dados_01/scratch/Gau-2282347.inp" -scrdir="/dados_01/scratch/"
 Entering Link 1 = /usr/local/g16/l1.exe PID=   2282350.
  
 Copyright (c) 1988-2017, Gaussian, Inc.  All Rights Reserved.
  
 This is part of the Gaussian(R) 16 program.  It is based on
 the Gaussian(R) 09 system (copyright 2009, Gaussian, Inc.),
 the Gaussian(R) 03 system (copyright 2003, Gaussian, Inc.),
 the Gaussian(R) 98 system (copyright 1998, Gaussian, Inc.),
 the Gaussian(R) 94 system (copyright 1995, Gaussian, Inc.),
 the Gaussian 92(TM) system (copyright 1992, Gaussian, Inc.),
 the Gaussian 90(TM) system (copyright 1990, Gaussian, Inc.),
 the Gaussian 88(TM) system (copyright 1988, Gaussian, Inc.),
 the Gaussian 86(TM) system (copyright 1986, Carnegie Mellon
 University), and the Gaussian 82(TM) system (copyright 1983,
 Carnegie Mellon University). Gaussian is a federally registered
 trademark of Gaussian, Inc.
  
 This software contains proprietary and confidential information,
 including trade secrets, belonging to Gaussian, Inc.
  
 This software is provided under written license and may be
 used, copied, transmitted, or stored only in accord with that
 written license.
  
 The following legend is applicable only to US Government
 contracts under FAR:
  
                    RESTRICTED RIGHTS LEGEND
  
 Use, reproduction and disclosure by the US Government is
 subject to restrictions as set forth in subparagraphs (a)
 and (c) of the Commercial Computer Software - Restricted
 Rights clause in FAR 52.227-19.
  
 Gaussian, Inc.
 340 Quinnipiac St., Bldg. 40, Wallingford CT 06492
  
  
 ---------------------------------------------------------------
 Warning -- This program may not be used in any manner that
 competes with the business of Gaussian, Inc. or will provide
 assistance to any competitor of Gaussian, Inc.  The licensee
 of this program is prohibited from giving any competitor of
 Gaussian, Inc. access to this program.  By using this program,
 the user acknowledges that Gaussian, Inc. is engaged in the
 business of creating and licensing software in the field of
 computational chemistry and represents and warrants to the
 licensee that it is not a competitor of Gaussian, Inc. and that
 it will not use this program in any manner prohibited above.
 ---------------------------------------------------------------
  

 Cite this work as:
 Gaussian 16, Revision B.01,
 M. J. Frisch, G. W. Trucks, H. B. Schlegel, G. E. Scuseria, 
 M. A. Robb, J. R. Cheeseman, G. Scalmani, V. Barone, 
 G. A. Petersson, H. Nakatsuji, X. Li, M. Caricato, A. V. Marenich, 
 J. Bloino, B. G. Janesko, R. Gomperts, B. Mennucci, H. P. Hratchian, 
 J. V. Ortiz, A. F. Izmaylov, J. L. Sonnenberg, D. Williams-Young, 
 F. Ding, F. Lipparini, F. Egidi, J. Goings, B. Peng, A. Petrone, 
 T. Henderson, D. Ranasinghe, V. G. Zakrzewski, J. Gao, N. Rega, 
 G. Zheng, W. Liang, M. Hada, M. Ehara, K. Toyota, R. Fukuda, 
 J. Hasegawa, M. Ishida, T. Nakajima, Y. Honda, O. Kitao, H. Nakai, 
 T. Vreven, K. Throssell, J. A. Montgomery, Jr., J. E. Peralta, 
 F. Ogliaro, M. J. Bearpark, J. J. Heyd, E. N. Brothers, K. N. Kudin, 
 V. N. Staroverov, T. A. Keith, R. Kobayashi, J. Normand, 
 K. Raghavachari, A. P. Rendell, J. C. Burant, S. S. Iyengar, 
 J. Tomasi, M. Cossi, J. M. Millam, M. Klene, C. Adamo, R. Cammi, 
 J. W. Ochterski, R. L. Martin, K. Morokuma, O. Farkas, 
 J. B. Foresman, and D. J. Fox, Gaussian, Inc., Wallingford CT, 2016.
 
 ******************************************
 Gaussian 16:  ES64L-G16RevB.01 20-Dec-2017
                27-Sep-2025 
 ******************************************
 %nprocs=16
 Will use up to   16 processors via shared memory.
 %mem=40GB
 %chk=SYRE0160.chk
 ----------------------------------------------------------------------
 # opt freq=noraman M08HX/6-311++G** scf=xqc Empiricaldispersion=pfd In
 t(Grid=ultraFine)
 ----------------------------------------------------------------------
 1/18=20,19=15,26=4,38=1/1,3;
 2/9=110,12=2,17=6,18=5,40=1/2;
 3/5=4,6=6,7=1111,11=2,25=1,30=1,71=1,74=-74,75=-5,124=11/1,2,3;
 4//1;
 5/5=2,8=3,13=1,38=5/2,8;
 6/7=2,8=2,9=2,10=2,28=1/1;
 7//1,2,3,16;
 1/18=20,19=15,26=4/3(2);
 2/9=110/2;
 99//99;
 2/9=110/2;
 3/5=4,6=6,7=1111,11=2,25=1,30=1,71=1,74=-74,75=-5,124=11/1,2,3;
 4/5=5,16=3,69=1/1;
 5/5=2,8=3,13=1,38=5/2,8;
 7//1,2,3,16;
 1/18=20,19=15,26=4/3(-5);
 2/9=110/2;
 6/7=2,8=2,9=2,10=2,19=2,28=1/1;
 99/9=1/99;
 --------
 SYRE0160
 --------
 Symbolic Z-matrix:
 Charge =  0 Multiplicity = 1
 C                     0.5487   -0.2144    0.1043 
 C                    -0.3364   -1.2879    0.0052 
 C                     0.0619    1.0927    0.1091 
 C                    -1.7083   -1.0543   -0.0889 
 C                    -1.3101    1.3263    0.0151 
 C                    -2.1952    0.2528   -0.0839 
 C                     1.9794   -0.458     0.2022 
 C                     2.9601    0.3428   -0.263 
 H                     0.0255   -2.3133   -0.0015 
 H                     0.7226    1.951     0.199 
 H                    -2.3977   -1.89     -0.1662 
 H                    -1.6899    2.3438    0.0222 
 H                    -3.2635    0.4346   -0.1562 
 H                     2.2727   -1.3927    0.6752 
 H                     3.9982    0.0502   -0.1434 
 H                     2.7608    1.2784   -0.7731 
 

 GradGradGradGradGradGradGradGradGradGradGradGradGradGradGradGradGradGrad
 Berny optimization.
 Initialization pass.
                           ----------------------------
                           !    Initial Parameters    !
                           ! (Angstroms and Degrees)  !
 --------------------------                            --------------------------
 ! Name  Definition              Value          Derivative Info.                !
 --------------------------------------------------------------------------------
 ! R1    R(1,2)                  1.3949         estimate D2E/DX2                !
 ! R2    R(1,3)                  1.3948         estimate D2E/DX2                !
 ! R3    R(1,7)                  1.4546         estimate D2E/DX2                !
 ! R4    R(2,4)                  1.3948         estimate D2E/DX2                !
 ! R5    R(2,9)                  1.0874         estimate D2E/DX2                !
 ! R6    R(3,5)                  1.3949         estimate D2E/DX2                !
 ! R7    R(3,10)                 1.0869         estimate D2E/DX2                !
 ! R8    R(4,6)                  1.3949         estimate D2E/DX2                !
 ! R9    R(4,11)                 1.0861         estimate D2E/DX2                !
 ! R10   R(5,6)                  1.3948         estimate D2E/DX2                !
 ! R11   R(5,12)                 1.0861         estimate D2E/DX2                !
 ! R12   R(6,13)                 1.0861         estimate D2E/DX2                !
 ! R13   R(7,8)                  1.3489         estimate D2E/DX2                !
 ! R14   R(7,14)                 1.0879         estimate D2E/DX2                !
 ! R15   R(8,15)                 1.0852         estimate D2E/DX2                !
 ! R16   R(8,16)                 1.0841         estimate D2E/DX2                !
 ! A1    A(2,1,3)              119.9999         estimate D2E/DX2                !
 ! A2    A(2,1,7)              120.0013         estimate D2E/DX2                !
 ! A3    A(3,1,7)              119.9988         estimate D2E/DX2                !
 ! A4    A(1,2,4)              120.0012         estimate D2E/DX2                !
 ! A5    A(1,2,9)              120.9962         estimate D2E/DX2                !
 ! A6    A(4,2,9)              119.0026         estimate D2E/DX2                !
 ! A7    A(1,3,5)              119.9984         estimate D2E/DX2                !
 ! A8    A(1,3,10)             121.8815         estimate D2E/DX2                !
 ! A9    A(5,3,10)             118.1144         estimate D2E/DX2                !
 ! A10   A(2,4,6)              120.0021         estimate D2E/DX2                !
 ! A11   A(2,4,11)             120.0163         estimate D2E/DX2                !
 ! A12   A(6,4,11)             119.9816         estimate D2E/DX2                !
 ! A13   A(3,5,6)              120.0015         estimate D2E/DX2                !
 ! A14   A(3,5,12)             120.0262         estimate D2E/DX2                !
 ! A15   A(6,5,12)             119.972          estimate D2E/DX2                !
 ! A16   A(4,6,5)              119.9969         estimate D2E/DX2                !
 ! A17   A(4,6,13)             119.9988         estimate D2E/DX2                !
 ! A18   A(5,6,13)             120.0042         estimate D2E/DX2                !
 ! A19   A(1,7,8)              126.3328         estimate D2E/DX2                !
 ! A20   A(1,7,14)             115.9983         estimate D2E/DX2                !
 ! A21   A(8,7,14)             117.6476         estimate D2E/DX2                !
 ! A22   A(7,8,15)             119.8302         estimate D2E/DX2                !
 ! A23   A(7,8,16)             122.75           estimate D2E/DX2                !
 ! A24   A(15,8,16)            117.4148         estimate D2E/DX2                !
 ! D1    D(3,1,2,4)             -0.0095         estimate D2E/DX2                !
 ! D2    D(3,1,2,9)            179.9109         estimate D2E/DX2                !
 ! D3    D(7,1,2,4)           -179.9894         estimate D2E/DX2                !
 ! D4    D(7,1,2,9)             -0.0691         estimate D2E/DX2                !
 ! D5    D(2,1,3,5)              0.0145         estimate D2E/DX2                !
 ! D6    D(2,1,3,10)           179.1247         estimate D2E/DX2                !
 ! D7    D(7,1,3,5)            179.9945         estimate D2E/DX2                !
 ! D8    D(7,1,3,10)            -0.8954         estimate D2E/DX2                !
 ! D9    D(2,1,7,8)            148.9195         estimate D2E/DX2                !
 ! D10   D(2,1,7,14)           -29.3496         estimate D2E/DX2                !
 ! D11   D(3,1,7,8)            -31.0604         estimate D2E/DX2                !
 ! D12   D(3,1,7,14)           150.6705         estimate D2E/DX2                !
 ! D13   D(1,2,4,6)             -0.0003         estimate D2E/DX2                !
 ! D14   D(1,2,4,11)           179.9924         estimate D2E/DX2                !
 ! D15   D(9,2,4,6)           -179.9223         estimate D2E/DX2                !
 ! D16   D(9,2,4,11)             0.0704         estimate D2E/DX2                !
 ! D17   D(1,3,5,6)             -0.0098         estimate D2E/DX2                !
 ! D18   D(1,3,5,12)           179.7919         estimate D2E/DX2                !
 ! D19   D(10,3,5,6)          -179.1531         estimate D2E/DX2                !
 ! D20   D(10,3,5,12)            0.6486         estimate D2E/DX2                !
 ! D21   D(2,4,6,5)              0.0051         estimate D2E/DX2                !
 ! D22   D(2,4,6,13)          -179.9406         estimate D2E/DX2                !
 ! D23   D(11,4,6,5)          -179.9877         estimate D2E/DX2                !
 ! D24   D(11,4,6,13)            0.0667         estimate D2E/DX2                !
 ! D25   D(3,5,6,4)              0.0            estimate D2E/DX2                !
 ! D26   D(3,5,6,13)           179.9456         estimate D2E/DX2                !
 ! D27   D(12,5,6,4)          -179.8018         estimate D2E/DX2                !
 ! D28   D(12,5,6,13)            0.1438         estimate D2E/DX2                !
 ! D29   D(1,7,8,15)          -179.192          estimate D2E/DX2                !
 ! D30   D(1,7,8,16)            -0.0286         estimate D2E/DX2                !
 ! D31   D(14,7,8,15)           -0.9483         estimate D2E/DX2                !
 ! D32   D(14,7,8,16)          178.2151         estimate D2E/DX2                !
 --------------------------------------------------------------------------------
 Trust Radius=3.00D-01 FncErr=1.00D-07 GrdErr=1.00D-06 EigMax=2.50D+02 EigMin=1.00D-04
 Number of steps in this run=     82 maximum allowed number of steps=    100.
 GradGradGradGradGradGradGradGradGradGradGradGradGradGradGradGradGradGrad

                          Input orientation:                          
 ---------------------------------------------------------------------
 Center     Atomic      Atomic             Coordinates (Angstroms)
 Number     Number       Type             X           Y           Z
 ---------------------------------------------------------------------
      1          6           0        0.548700   -0.214400    0.104300
      2          6           0       -0.336400   -1.287900    0.005200
      3          6           0        0.061900    1.092700    0.109100
      4          6           0       -1.708300   -1.054300   -0.088900
      5          6           0       -1.310100    1.326300    0.015100
      6          6           0       -2.195200    0.252800   -0.083900
      7          6           0        1.979400   -0.458000    0.202200
      8          6           0        2.960100    0.342800   -0.263000
      9          1           0        0.025500   -2.313300   -0.001500
     10          1           0        0.722600    1.951000    0.199000
     11          1           0       -2.397700   -1.890000   -0.166200
     12          1           0       -1.689900    2.343800    0.022200
     13          1           0       -3.263500    0.434600   -0.156200
     14          1           0        2.272700   -1.392700    0.675200
     15          1           0        3.998200    0.050200   -0.143400
     16          1           0        2.760800    1.278400   -0.773100
 ---------------------------------------------------------------------
                    Distance matrix (angstroms):
                    1          2          3          4          5
     1  C    0.000000
     2  C    1.394857   0.000000
     3  C    1.394815   2.415925   0.000000
     4  C    2.415949   1.394824   2.789699   0.000000
     5  C    2.415957   2.789665   1.394915   2.415913   0.000000
     6  C    2.789746   2.415954   2.416026   1.394850   1.394850
     7  C    1.454589   2.467888   2.467822   3.746925   3.746938
     8  C    2.502045   3.687550   3.016682   4.876080   4.390811
     9  H    2.165713   1.087411   3.407990   2.144477   3.876956
    10  H    2.174435   3.413138   1.086870   3.876079   2.134464
    11  H    3.400306   2.154266   3.875812   1.086113   3.400048
    12  H    3.400361   3.875757   2.154439   3.399965   1.086096
    13  H    3.875813   3.400143   3.400260   2.154066   2.154123
    14  H    2.164831   2.695790   3.374214   4.067767   4.545894
    15  H    3.468489   4.538871   4.079831   5.812661   5.461831
    16  H    2.809211   4.096864   2.845492   5.087482   4.146780
                    6          7          8          9         10
     6  C    0.000000
     7  C    4.244334   0.000000
     8  C    5.159195   1.348875   0.000000
     9  H    3.394579   2.702102   3.966753   0.000000
    10  H    3.387842   2.717138   2.793950   4.325552   0.000000
    11  H    2.153920   4.620102   5.805238   2.465402   4.962149
    12  H    2.153803   4.620200   5.070290   4.963037   2.450654
    13  H    1.086068   5.330402   6.225193   4.288637   4.279559
    14  H    4.821414   1.087850   2.089186   2.520979   3.716168
    15  H    6.196999   2.110275   1.085159   4.624782   3.802609
    16  H    5.107718   2.139365   1.084099   4.580125   2.356189
                   11         12         13         14         15
    11  H    0.000000
    12  H    4.296689   0.000000
    13  H    2.480620   2.480542   0.000000
    14  H    4.771572   5.485439   5.888953   0.000000
    15  H    6.683744   6.135349   7.271878   2.393620   0.000000
    16  H    6.084177   4.645031   6.114307   3.077432   1.853687
                   16
    16  H    0.000000
 Stoichiometry    C8H8
 Framework group  C1[X(C8H8)]
 Deg. of freedom    42
 Full point group                 C1      NOp   1
 Largest Abelian subgroup         C1      NOp   1
 Largest concise Abelian subgroup C1      NOp   1
                         Standard orientation:                         
 ---------------------------------------------------------------------
 Center     Atomic      Atomic             Coordinates (Angstroms)
 Number     Number       Type             X           Y           Z
 ---------------------------------------------------------------------
      1          6           0       -0.503338   -0.229253   -0.105878
      2          6           0        0.390668   -1.292845    0.017212
      3          6           0       -0.027535    1.081483   -0.138888
      4          6           0        1.760477   -1.045705    0.107093
      5          6           0        1.342374    1.328621   -0.049106
      6          6           0        2.236380    0.265027    0.073884
      7          6           0       -1.931857   -0.486968   -0.199379
      8          6           0       -2.919643    0.315507    0.247586
      9          1           0        0.037391   -2.320865    0.046054
     10          1           0       -0.695348    1.932024   -0.247935
     11          1           0        2.456810   -1.873686    0.203069
     12          1           0        1.713617    2.348886   -0.078164
     13          1           0        3.303054    0.457350    0.142901
     14          1           0       -2.216895   -1.434203   -0.652057
     15          1           0       -3.955147    0.011637    0.133718
     16          1           0       -2.728641    1.263660    0.737273
 ---------------------------------------------------------------------
 Rotational constants (GHZ):           5.1033209           1.5673879           1.2160343
 Standard basis: 6-311++G(d,p) (5D, 7F)
 There are   240 symmetry adapted cartesian basis functions of A   symmetry.
 There are   232 symmetry adapted basis functions of A   symmetry.
   232 basis functions,   360 primitive gaussians,   240 cartesian basis functions
    28 alpha electrons       28 beta electrons
       nuclear repulsion energy       320.8891586348 Hartrees.
 NAtoms=   16 NActive=   16 NUniq=   16 SFac= 1.00D+00 NAtFMM=   60 NAOKFM=F Big=F
 Integral buffers will be    131072 words long.
 Raffenetti 2 integral format.
 Two-electron integral symmetry is turned on.
 R6APFD:  NTU= -4 IXU= 1 FactS= 1.050
 Nuclear repulsion after empirical dispersion term =      320.8820174264 Hartrees.
 One-electron integrals computed using PRISM.
 NBasis=   232 RedAO= T EigKep=  1.06D-06  NBF=   232
 NBsUse=   232 1.00D-06 EigRej= -1.00D+00 NBFU=   232
 ExpMin= 3.60D-02 ExpMax= 4.56D+03 ExpMxC= 6.82D+02 IAcc=3 IRadAn=         5 AccDes= 0.00D+00
 Harris functional with IExCor= 1009 and IRadAn=       5 diagonalized for initial guess.
 HarFok:  IExCor= 1009 AccDes= 0.00D+00 IRadAn=         5 IDoV= 1 UseB2=F ITyADJ=14
 ICtDFT=  3500011 ScaDFX=  1.000000  1.000000  1.000000  1.000000
 FoFCou: FMM=F IPFlag=           0 FMFlag=      100000 FMFlg1=           0
         NFxFlg=           0 DoJE=T BraDBF=F KetDBF=T FulRan=T
         wScrn=  0.000000 ICntrl=       500 IOpCl=  0 I1Cent=   200000004 NGrid=           0
         NMat0=    1 NMatS0=      1 NMatT0=    0 NMatD0=    1 NMtDS0=    0 NMtDT0=    0
 Petite list used in FoFCou.
 Requested convergence on RMS density matrix=1.00D-08 within  32 cycles.
 Requested convergence on MAX density matrix=1.00D-06.
 Requested convergence on             energy=1.00D-06.
 No special actions if energy rises.
 SCF Done:  E(RM08HX) =  -309.643303338     A.U. after   15 cycles
            NFock= 15  Conv=0.35D-08     -V/T= 2.0053
 QCSCF skips out because SCF is already converged.

 **********************************************************************

            Population analysis using the SCF Density.

 **********************************************************************

 Orbital symmetries:
       Occupied  (A) (A) (A) (A) (A) (A) (A) (A) (A) (A) (A) (A)
                 (A) (A) (A) (A) (A) (A) (A) (A) (A) (A) (A) (A)
                 (A) (A) (A) (A)
       Virtual   (A) (A) (A) (A) (A) (A) (A) (A) (A) (A) (A) (A)
                 (A) (A) (A) (A) (A) (A) (A) (A) (A) (A) (A) (A)
                 (A) (A) (A) (A) (A) (A) (A) (A) (A) (A) (A) (A)
                 (A) (A) (A) (A) (A) (A) (A) (A) (A) (A) (A) (A)
                 (A) (A) (A) (A) (A) (A) (A) (A) (A) (A) (A) (A)
                 (A) (A) (A) (A) (A) (A) (A) (A) (A) (A) (A) (A)
                 (A) (A) (A) (A) (A) (A) (A) (A) (A) (A) (A) (A)
                 (A) (A) (A) (A) (A) (A) (A) (A) (A) (A) (A) (A)
                 (A) (A) (A) (A) (A) (A) (A) (A) (A) (A) (A) (A)
                 (A) (A) (A) (A) (A) (A) (A) (A) (A) (A) (A) (A)
                 (A) (A) (A) (A) (A) (A) (A) (A) (A) (A) (A) (A)
                 (A) (A) (A) (A) (A) (A) (A) (A) (A) (A) (A) (A)
                 (A) (A) (A) (A) (A) (A) (A) (A) (A) (A) (A) (A)
                 (A) (A) (A) (A) (A) (A) (A) (A) (A) (A) (A) (A)
                 (A) (A) (A) (A) (A) (A) (A) (A) (A) (A) (A) (A)
                 (A) (A) (A) (A) (A) (A) (A) (A) (A) (A) (A) (A)
                 (A) (A) (A) (A) (A) (A) (A) (A) (A) (A) (A) (A)
 The electronic state is 1-A.
 Alpha  occ. eigenvalues --  -10.54768 -10.54183 -10.54022 -10.53959 -10.53940
 Alpha  occ. eigenvalues --  -10.53845 -10.53808 -10.53119  -0.97987  -0.90196
 Alpha  occ. eigenvalues --   -0.85500  -0.82868  -0.71775  -0.69828  -0.64735
 Alpha  occ. eigenvalues --   -0.59609  -0.55204  -0.53311  -0.51440  -0.49501
 Alpha  occ. eigenvalues --   -0.48796  -0.45022  -0.44067  -0.41163  -0.40491
 Alpha  occ. eigenvalues --   -0.36223  -0.31560  -0.28792
 Alpha virt. eigenvalues --   -0.02566  -0.02145  -0.01363  -0.01275   0.00282
 Alpha virt. eigenvalues --    0.00601   0.00652   0.01899   0.02914   0.03566
 Alpha virt. eigenvalues --    0.04012   0.04652   0.05197   0.06119   0.07292
 Alpha virt. eigenvalues --    0.07918   0.09021   0.10013   0.10424   0.11054
 Alpha virt. eigenvalues --    0.11447   0.11924   0.12141   0.12267   0.12483
 Alpha virt. eigenvalues --    0.12722   0.13107   0.13444   0.14205   0.14798
 Alpha virt. eigenvalues --    0.15315   0.15989   0.16215   0.17035   0.17857
 Alpha virt. eigenvalues --    0.18417   0.18997   0.20375   0.21319   0.21862
 Alpha virt. eigenvalues --    0.22233   0.22741   0.23806   0.24608   0.25047
 Alpha virt. eigenvalues --    0.25927   0.27290   0.29573   0.29820   0.32170
 Alpha virt. eigenvalues --    0.32276   0.32659   0.35754   0.36848   0.37755
 Alpha virt. eigenvalues --    0.39185   0.41460   0.43709   0.49131   0.49909
 Alpha virt. eigenvalues --    0.53952   0.55190   0.56306   0.57067   0.57495
 Alpha virt. eigenvalues --    0.57803   0.58685   0.59148   0.61688   0.62603
 Alpha virt. eigenvalues --    0.63174   0.64934   0.66037   0.66700   0.68642
 Alpha virt. eigenvalues --    0.69299   0.71743   0.72537   0.73292   0.75767
 Alpha virt. eigenvalues --    0.76532   0.77483   0.78814   0.80036   0.82698
 Alpha virt. eigenvalues --    0.83025   0.85484   0.85981   0.87296   0.88601
 Alpha virt. eigenvalues --    0.90121   0.90984   0.92729   0.93463   0.94504
 Alpha virt. eigenvalues --    0.96259   0.97601   1.03375   1.05327   1.06386
 Alpha virt. eigenvalues --    1.09398   1.12421   1.14241   1.17121   1.18874
 Alpha virt. eigenvalues --    1.19753   1.26501   1.32170   1.38930   1.45598
 Alpha virt. eigenvalues --    1.51116   1.53151   1.53736   1.53767   1.56461
 Alpha virt. eigenvalues --    1.57759   1.59962   1.60188   1.63950   1.64964
 Alpha virt. eigenvalues --    1.66247   1.67505   1.68077   1.71479   1.75088
 Alpha virt. eigenvalues --    1.77424   1.80185   1.80934   1.82255   1.85137
 Alpha virt. eigenvalues --    1.86941   1.92269   1.93799   1.96709   1.97737
 Alpha virt. eigenvalues --    1.97925   1.98457   1.98795   2.02901   2.05400
 Alpha virt. eigenvalues --    2.08352   2.11739   2.13593   2.18620   2.20112
 Alpha virt. eigenvalues --    2.22946   2.26524   2.31203   2.37895   2.41487
 Alpha virt. eigenvalues --    2.44695   2.46356   2.46950   2.47279   2.49495
 Alpha virt. eigenvalues --    2.58613   2.60262   2.64792   2.67398   2.69137
 Alpha virt. eigenvalues --    2.70096   2.70848   2.72519   2.72888   2.74643
 Alpha virt. eigenvalues --    2.75789   2.76706   2.80497   2.84300   2.87924
 Alpha virt. eigenvalues --    2.89014   2.91659   2.95535   2.97448   2.99125
 Alpha virt. eigenvalues --    3.00795   3.07843   3.16822   3.20978   3.26480
 Alpha virt. eigenvalues --    3.35076   3.43402   3.44895   3.54454   3.54548
 Alpha virt. eigenvalues --    3.58465   3.64965   3.73398   3.78775   4.02601
 Alpha virt. eigenvalues --    4.05697   4.09736   4.20729   4.21637   4.49715
 Alpha virt. eigenvalues --    4.91994  23.65616  23.88742  24.02128  24.02817
 Alpha virt. eigenvalues --   24.13718  24.14966  24.24594  24.26698
          Condensed to atoms (all electrons):
               1          2          3          4          5          6
     1  C   19.393884  -8.149294  -6.877039   4.943770   4.112925  -4.350950
     2  C   -8.149294  23.180469   0.191249  -7.047013  -4.371995   4.950371
     3  C   -6.877039   0.191249  19.503196  -3.267307  -5.210989   3.940244
     4  C    4.943770  -7.047013  -3.267307  11.591306   4.095987  -4.571512
     5  C    4.112925  -4.371995  -5.210989   4.095987  11.140481  -4.347570
     6  C   -4.350950   4.950371   3.940244  -4.571512  -4.347570  10.733765
     7  C   -4.539606  -2.767992  -1.125160  -0.037072   0.332093  -0.060709
     8  C   -0.211691   0.868222  -0.015943  -0.194317  -0.257727   0.152130
     9  H   -0.146571   0.583780   0.106858  -0.129550  -0.066902   0.094935
    10  H   -0.272336   0.039001   0.738215  -0.054122  -0.138204   0.093172
    11  H    0.110833  -0.130898  -0.034787   0.405318   0.058482  -0.104070
    12  H    0.109010  -0.036753  -0.134616   0.061457   0.410925  -0.103433
    13  H   -0.037611   0.062513   0.046637  -0.066668  -0.071211   0.407912
    14  H    0.120046  -0.164425  -0.045581   0.074432   0.041648  -0.042965
    15  H   -0.042348   0.014650   0.026173  -0.010432  -0.012954   0.006547
    16  H    0.010405  -0.027983  -0.037097   0.012322   0.025536  -0.014643
               7          8          9         10         11         12
     1  C   -4.539606  -0.211691  -0.146571  -0.272336   0.110833   0.109010
     2  C   -2.767992   0.868222   0.583780   0.039001  -0.130898  -0.036753
     3  C   -1.125160  -0.015943   0.106858   0.738215  -0.034787  -0.134616
     4  C   -0.037072  -0.194317  -0.129550  -0.054122   0.405318   0.061457
     5  C    0.332093  -0.257727  -0.066902  -0.138204   0.058482   0.410925
     6  C   -0.060709   0.152130   0.094935   0.093172  -0.104070  -0.103433
     7  C   13.958735  -0.191780  -0.103314  -0.058077  -0.002422  -0.006677
     8  C   -0.191780   5.781229   0.018384   0.021842  -0.002443  -0.003988
     9  H   -0.103314   0.018384   0.413460   0.002918  -0.004584  -0.000498
    10  H   -0.058077   0.021842   0.002918   0.453561  -0.000118  -0.007390
    11  H   -0.002422  -0.002443  -0.004584  -0.000118   0.402879   0.001085
    12  H   -0.006677  -0.003988  -0.000498  -0.007390   0.001085   0.403771
    13  H   -0.017226   0.001797   0.001844   0.001503  -0.001591  -0.001501
    14  H    0.352106  -0.038466  -0.005501  -0.000910   0.002153   0.000669
    15  H   -0.017059   0.406741   0.000742   0.000876  -0.000198  -0.000274
    16  H    0.024277   0.366138  -0.001161  -0.006424   0.000179   0.001103
              13         14         15         16
     1  C   -0.037611   0.120046  -0.042348   0.010405
     2  C    0.062513  -0.164425   0.014650  -0.027983
     3  C    0.046637  -0.045581   0.026173  -0.037097
     4  C   -0.066668   0.074432  -0.010432   0.012322
     5  C   -0.071211   0.041648  -0.012954   0.025536
     6  C    0.407912  -0.042965   0.006547  -0.014643
     7  C   -0.017226   0.352106  -0.017059   0.024277
     8  C    0.001797  -0.038466   0.406741   0.366138
     9  H    0.001844  -0.005501   0.000742  -0.001161
    10  H    0.001503  -0.000910   0.000876  -0.006424
    11  H   -0.001591   0.002153  -0.000198   0.000179
    12  H   -0.001501   0.000669  -0.000274   0.001103
    13  H    0.401894  -0.000639   0.000016  -0.000243
    14  H   -0.000639   0.449166  -0.007435  -0.000098
    15  H    0.000016  -0.007435   0.452215  -0.012999
    16  H   -0.000243  -0.000098  -0.012999   0.481766
 Mulliken charges:
               1
     1  C    1.826573
     2  C   -1.193904
     3  C   -1.804052
     4  C    0.193402
     5  C    0.259475
     6  C   -0.783225
     7  C    0.259883
     8  C   -0.700132
     9  H    0.235159
    10  H    0.186493
    11  H    0.300182
    12  H    0.307111
    13  H    0.272574
    14  H    0.265797
    15  H    0.195741
    16  H    0.178923
 Sum of Mulliken charges =  -0.00000
 Mulliken charges with hydrogens summed into heavy atoms:
               1
     1  C    1.826573
     2  C   -0.958744
     3  C   -1.617559
     4  C    0.493584
     5  C    0.566586
     6  C   -0.510651
     7  C    0.525680
     8  C   -0.325469
 Electronic spatial extent (au):  <R**2>=            977.9312
 Charge=              0.0000 electrons
 Dipole moment (field-independent basis, Debye):
    X=              0.1648    Y=             -0.0135    Z=              0.0117  Tot=              0.1657
 Quadrupole moment (field-independent basis, Debye-Ang):
   XX=            -43.3744   YY=            -42.9531   ZZ=            -53.4094
   XY=              0.0058   XZ=              0.4555   YZ=              0.8119
 Traceless Quadrupole moment (field-independent basis, Debye-Ang):
   XX=              3.2046   YY=              3.6258   ZZ=             -6.8304
   XY=              0.0058   XZ=              0.4555   YZ=              0.8119
 Octapole moment (field-independent basis, Debye-Ang**2):
  XXX=              3.2298  YYY=              0.1321  ZZZ=             -0.0911  XYY=              2.3367
  XXY=             -0.2858  XXZ=              1.9122  XZZ=             -0.9832  YZZ=              0.0333
  YYZ=             -0.2322  XYZ=             -3.8838
 Hexadecapole moment (field-independent basis, Debye-Ang**3):
 XXXX=           -891.8954 YYYY=           -310.3223 ZZZZ=            -75.5804 XXXY=              3.4498
 XXXZ=              2.7418 YYYX=              0.5639 YYYZ=              0.0899 ZZZX=              0.1098
 ZZZY=              1.8500 XXYY=           -206.0772 XXZZ=           -195.8948 YYZZ=            -75.2020
 XXYZ=              7.8487 YYXZ=              1.4779 ZZXY=             -0.6008
 N-N= 3.208820174264D+02 E-N=-1.358873173037D+03  KE= 3.080249265849D+02
 R6APFD:  NTU= -4 IXU= 1 FactS= 1.050
 Calling FoFJK, ICntrl=      2127 FMM=F ISym2X=0 I1Cent= 0 IOpClX= 0 NMat=1 NMatS=1 NMatT=0.
 ***** Axes restored to original set *****
 -------------------------------------------------------------------
 Center     Atomic                   Forces (Hartrees/Bohr)
 Number     Number              X              Y              Z
 -------------------------------------------------------------------
      1        6           0.000736650    0.004756162   -0.000890721
      2        6          -0.010646867    0.001439940    0.001479885
      3        6          -0.015190346    0.004773930   -0.001601684
      4        6           0.003060659    0.002972811   -0.000257963
      5        6           0.002734663   -0.004426651   -0.000884839
      6        6           0.001195121   -0.000733866   -0.000162263
      7        6           0.025757059    0.006276401   -0.006756100
      8        6          -0.012843170   -0.012921725    0.008436766
      9        1           0.003469890   -0.000260810    0.000471900
     10        1           0.004422906   -0.002042032    0.001199000
     11        1          -0.001058820   -0.001446641   -0.000208010
     12        1          -0.000562541    0.001779410    0.000260836
     13        1          -0.001867975    0.000216415    0.000125707
     14        1           0.000590580   -0.003865177    0.000669561
     15        1           0.001951452    0.000802787    0.000096875
     16        1          -0.001749260    0.002679045   -0.001978950
 -------------------------------------------------------------------
 Cartesian Forces:  Max     0.025757059 RMS     0.005915330

 GradGradGradGradGradGradGradGradGradGradGradGradGradGradGradGradGradGrad
 Berny optimization.
 FormGI is forming the generalized inverse of G from B-inverse, IUseBI=4.
 Internal  Forces:  Max     0.017056772 RMS     0.003327327
 Search for a local minimum.
 Step number   1 out of a maximum of   82
 All quantities printed in internal units (Hartrees-Bohrs-Radians)
 Mixed Optimization -- RFO/linear search
 Second derivative matrix not updated -- first step.
 ITU=  0
     Eigenvalues ---    0.01367   0.01914   0.02078   0.02156   0.02157
     Eigenvalues ---    0.02157   0.02157   0.02157   0.02157   0.02157
     Eigenvalues ---    0.02157   0.02765   0.02766   0.15997   0.15998
     Eigenvalues ---    0.16000   0.16000   0.16000   0.16000   0.16000
     Eigenvalues ---    0.16000   0.22000   0.22000   0.22001   0.23486
     Eigenvalues ---    0.25000   0.35062   0.35114   0.35177   0.35266
     Eigenvalues ---    0.35268   0.35271   0.35378   0.35504   0.37650
     Eigenvalues ---    0.42136   0.42330   0.46478   0.46484   0.46486
     Eigenvalues ---    0.46489   0.55261
 RFO step:  Lambda=-2.57898194D-03 EMin= 1.36665390D-02
 Linear search not attempted -- first point.
 Iteration  1 RMS(Cart)=  0.02465512 RMS(Int)=  0.00041500
 Iteration  2 RMS(Cart)=  0.00068238 RMS(Int)=  0.00006436
 Iteration  3 RMS(Cart)=  0.00000038 RMS(Int)=  0.00006436
 Variable       Old X    -DE/DX   Delta X   Delta X   Delta X     New X
                                 (Linear)    (Quad)   (Total)
    R1        2.63590   0.00265   0.00000   0.00592   0.00592   2.64182
    R2        2.63582   0.00437   0.00000   0.00967   0.00967   2.64549
    R3        2.74877   0.01469   0.00000   0.03875   0.03875   2.78753
    R4        2.63583  -0.00167   0.00000  -0.00364  -0.00364   2.63220
    R5        2.05491   0.00140   0.00000   0.00395   0.00395   2.05886
    R6        2.63601  -0.00197   0.00000  -0.00415  -0.00416   2.63185
    R7        2.05389   0.00118   0.00000   0.00332   0.00332   2.05720
    R8        2.63588  -0.00154   0.00000  -0.00362  -0.00362   2.63227
    R9        2.05246   0.00180   0.00000   0.00507   0.00507   2.05752
   R10        2.63588  -0.00073   0.00000  -0.00181  -0.00181   2.63407
   R11        2.05242   0.00187   0.00000   0.00525   0.00525   2.05768
   R12        2.05237   0.00187   0.00000   0.00525   0.00525   2.05762
   R13        2.54900  -0.01706   0.00000  -0.03072  -0.03072   2.51828
   R14        2.05574   0.00377   0.00000   0.01068   0.01068   2.06642
   R15        2.05065   0.00166   0.00000   0.00466   0.00466   2.05532
   R16        2.04865   0.00356   0.00000   0.00997   0.00997   2.05862
    A1        2.09439  -0.00586   0.00000  -0.02252  -0.02255   2.07184
    A2        2.09442  -0.00095   0.00000  -0.00410  -0.00408   2.09033
    A3        2.09437   0.00681   0.00000   0.02662   0.02663   2.12101
    A4        2.09442   0.00292   0.00000   0.01303   0.01297   2.10738
    A5        2.11178  -0.00476   0.00000  -0.02682  -0.02683   2.08495
    A6        2.07699   0.00184   0.00000   0.01378   0.01377   2.09075
    A7        2.09437   0.00231   0.00000   0.01074   0.01070   2.10507
    A8        2.12723  -0.00608   0.00000  -0.03570  -0.03568   2.09155
    A9        2.06148   0.00377   0.00000   0.02489   0.02490   2.08639
   A10        2.09443   0.00071   0.00000   0.00185   0.00182   2.09625
   A11        2.09468  -0.00046   0.00000  -0.00155  -0.00154   2.09314
   A12        2.09407  -0.00026   0.00000  -0.00030  -0.00029   2.09378
   A13        2.09442   0.00090   0.00000   0.00315   0.00310   2.09753
   A14        2.09485  -0.00057   0.00000  -0.00233  -0.00232   2.09253
   A15        2.09391  -0.00033   0.00000  -0.00086  -0.00086   2.09305
   A16        2.09434  -0.00100   0.00000  -0.00624  -0.00629   2.08805
   A17        2.09437   0.00041   0.00000   0.00257   0.00257   2.09694
   A18        2.09447   0.00059   0.00000   0.00367   0.00367   2.09814
   A19        2.20492  -0.00348   0.00000  -0.01563  -0.01563   2.18930
   A20        2.02455   0.00132   0.00000   0.00526   0.00526   2.02981
   A21        2.05334   0.00217   0.00000   0.01047   0.01047   2.06381
   A22        2.09143   0.00238   0.00000   0.01467   0.01467   2.10610
   A23        2.14239  -0.00232   0.00000  -0.01427  -0.01427   2.12812
   A24        2.04927  -0.00006   0.00000  -0.00038  -0.00038   2.04890
    D1       -0.00017   0.00062   0.00000   0.02569   0.02562   0.02545
    D2        3.14004   0.00029   0.00000   0.01195   0.01195  -3.13119
    D3       -3.14141   0.00053   0.00000   0.02142   0.02147  -3.11994
    D4       -0.00121   0.00020   0.00000   0.00767   0.00781   0.00660
    D5        0.00025  -0.00055   0.00000  -0.02262  -0.02252  -0.02226
    D6        3.12632  -0.00063   0.00000  -0.02751  -0.02731   3.09900
    D7        3.14150  -0.00046   0.00000  -0.01835  -0.01830   3.12319
    D8       -0.01563  -0.00054   0.00000  -0.02324  -0.02310  -0.03873
    D9        2.59914   0.00085   0.00000   0.05056   0.05055   2.64969
   D10       -0.51225   0.00074   0.00000   0.04607   0.04607  -0.46618
   D11       -0.54211   0.00076   0.00000   0.04630   0.04630  -0.49581
   D12        2.62970   0.00065   0.00000   0.04181   0.04181   2.67151
   D13       -0.00001  -0.00034   0.00000  -0.01387  -0.01404  -0.01405
   D14        3.14146  -0.00024   0.00000  -0.00967  -0.00983   3.13163
   D15       -3.14024  -0.00000   0.00000  -0.00037  -0.00030  -3.14054
   D16        0.00123   0.00010   0.00000   0.00384   0.00391   0.00514
   D17       -0.00017   0.00018   0.00000   0.00773   0.00786   0.00769
   D18        3.13796  -0.00007   0.00000  -0.00261  -0.00255   3.13541
   D19       -3.12681   0.00035   0.00000   0.01297   0.01318  -3.11363
   D20        0.01132   0.00009   0.00000   0.00263   0.00276   0.01408
   D21        0.00009  -0.00003   0.00000  -0.00101  -0.00109  -0.00100
   D22       -3.14056   0.00024   0.00000   0.00989   0.00990  -3.13066
   D23       -3.14138  -0.00013   0.00000  -0.00522  -0.00530   3.13651
   D24        0.00116   0.00014   0.00000   0.00568   0.00568   0.00685
   D25        0.00000   0.00010   0.00000   0.00408   0.00413   0.00413
   D26        3.14064  -0.00016   0.00000  -0.00682  -0.00686   3.13379
   D27       -3.13813   0.00036   0.00000   0.01442   0.01456  -3.12357
   D28        0.00251   0.00009   0.00000   0.00352   0.00357   0.00608
   D29       -3.12749  -0.00051   0.00000  -0.01769  -0.01769   3.13800
   D30       -0.00050  -0.00046   0.00000  -0.01587  -0.01588  -0.01638
   D31       -0.01655  -0.00042   0.00000  -0.01322  -0.01322  -0.02977
   D32        3.11044  -0.00037   0.00000  -0.01141  -0.01140   3.09904
         Item               Value     Threshold  Converged?
 Maximum Force            0.017057     0.000450     NO 
 RMS     Force            0.003327     0.000300     NO 
 Maximum Displacement     0.096320     0.001800     NO 
 RMS     Displacement     0.024631     0.001200     NO 
 Predicted change in Energy=-1.317942D-03
 GradGradGradGradGradGradGradGradGradGradGradGradGradGradGradGradGradGrad

                          Input orientation:                          
 ---------------------------------------------------------------------
 Center     Atomic      Atomic             Coordinates (Angstroms)
 Number     Number       Type             X           Y           Z
 ---------------------------------------------------------------------
      1          6           0        0.555200   -0.208800    0.101712
      2          6           0       -0.343818   -1.276462    0.022711
      3          6           0        0.050129    1.096843    0.103653
      4          6           0       -1.713692   -1.047502   -0.083078
      5          6           0       -1.319557    1.327553    0.001707
      6          6           0       -2.205446    0.255693   -0.094475
      7          6           0        2.003538   -0.475629    0.185553
      8          6           0        2.965428    0.336788   -0.251042
      9          1           0        0.035305   -2.297845    0.030135
     10          1           0        0.730514    1.940638    0.204601
     11          1           0       -2.401248   -1.888830   -0.153120
     12          1           0       -1.700157    2.347710    0.010205
     13          1           0       -3.276948    0.435211   -0.166881
     14          1           0        2.295036   -1.433928    0.624230
     15          1           0        4.012810    0.062965   -0.146437
     16          1           0        2.741705    1.287597   -0.733373
 ---------------------------------------------------------------------
                    Distance matrix (angstroms):
                    1          2          3          4          5
     1  C    0.000000
     2  C    1.397990   0.000000
     3  C    1.399930   2.407139   0.000000
     4  C    2.425993   1.392900   2.782831   0.000000
     5  C    2.425922   2.780900   1.392716   2.409029   0.000000
     6  C    2.806316   2.413896   2.415451   1.392936   1.393892
     7  C    1.475096   2.485544   2.509020   3.770544   3.785264
     8  C    2.496257   3.691696   3.033556   4.882482   4.405291
     9  H    2.153955   1.089501   3.395516   2.152943   3.870397
    10  H    2.159029   3.396616   1.088625   3.871160   2.149379
    11  H    3.409989   2.153818   3.871618   1.088794   3.396932
    12  H    3.410390   3.869682   2.153347   3.396521   1.088875
    13  H    3.895158   3.401327   3.402996   2.156207   2.157794
    14  H    2.191116   2.711119   3.422778   4.088949   4.591143
    15  H    3.477139   4.561017   4.102961   5.833522   5.482268
    16  H    2.778016   4.082464   2.825169   5.072093   4.127443
                    6          7          8          9         10
     6  C    0.000000
     7  C    4.281214   0.000000
     8  C    5.173879   1.332618   0.000000
     9  H    3.399566   2.686739   3.950440   0.000000
    10  H    3.398286   2.731172   2.788330   4.298662   0.000000
    11  H    2.154242   4.638316   5.810695   2.477431   4.959912
    12  H    2.154718   4.660402   5.087213   4.959175   2.472177
    13  H    1.088846   5.370044   6.243719   4.298771   4.296983
    14  H    4.860626   1.093501   2.085896   2.491121   3.743195
    15  H    6.221459   2.106532   1.087626   4.628731   3.797677
    16  H    5.093851   2.120915   1.089373   4.556637   2.313255
                   11         12         13         14         15
    11  H    0.000000
    12  H    4.297265   0.000000
    13  H    2.483588   2.485012   0.000000
    14  H    4.781871   5.535285   5.930138   0.000000
    15  H    6.704453   6.154884   7.299285   2.405279   0.000000
    16  H    6.072590   4.626758   6.105052   3.073971   1.860088
                   16
    16  H    0.000000
 Stoichiometry    C8H8
 Framework group  C1[X(C8H8)]
 Deg. of freedom    42
 Full point group                 C1      NOp   1
 Largest Abelian subgroup         C1      NOp   1
 Largest concise Abelian subgroup C1      NOp   1
                         Standard orientation:                         
 ---------------------------------------------------------------------
 Center     Atomic      Atomic             Coordinates (Angstroms)
 Number     Number       Type             X           Y           Z
 ---------------------------------------------------------------------
      1          6           0       -0.512014   -0.222056   -0.102872
      2          6           0        0.389926   -1.284764    0.004514
      3          6           0       -0.010484    1.084416   -0.140317
      4          6           0        1.759217   -1.049334    0.103434
      5          6           0        1.358612    1.321492   -0.045287
      6          6           0        2.247441    0.255016    0.079394
      7          6           0       -1.959656   -0.494960   -0.178791
      8          6           0       -2.923570    0.326356    0.236154
      9          1           0        0.013570   -2.306995    0.024861
     10          1           0       -0.693194    1.923337   -0.263700
     11          1           0        2.449079   -1.886605    0.195851
     12          1           0        1.736442    2.342071   -0.081518
     13          1           0        3.318482    0.439315    0.146418
     14          1           0       -2.248730   -1.465542   -0.591285
     15          1           0       -3.970248    0.046981    0.139478
     16          1           0       -2.702233    1.290447    0.692522
 ---------------------------------------------------------------------
 Rotational constants (GHZ):           5.1277293           1.5544200           1.2078329
 Standard basis: 6-311++G(d,p) (5D, 7F)
 There are   240 symmetry adapted cartesian basis functions of A   symmetry.
 There are   232 symmetry adapted basis functions of A   symmetry.
   232 basis functions,   360 primitive gaussians,   240 cartesian basis functions
    28 alpha electrons       28 beta electrons
       nuclear repulsion energy       320.4003749134 Hartrees.
 NAtoms=   16 NActive=   16 NUniq=   16 SFac= 1.00D+00 NAtFMM=   60 NAOKFM=F Big=F
 Integral buffers will be    131072 words long.
 Raffenetti 2 integral format.
 Two-electron integral symmetry is turned on.
 R6APFD:  NTU= -4 IXU= 1 FactS= 1.050
 Nuclear repulsion after empirical dispersion term =      320.3932652301 Hartrees.
 One-electron integrals computed using PRISM.
 NBasis=   232 RedAO= T EigKep=  1.06D-06  NBF=   232
 NBsUse=   232 1.00D-06 EigRej= -1.00D+00 NBFU=   232
 Initial guess from the checkpoint file:  "SYRE0160.chk"
 B after Tr=    -0.000000   -0.000000    0.000000
         Rot=    0.999997    0.000904   -0.000272    0.002343 Ang=   0.29 deg.
 ExpMin= 3.60D-02 ExpMax= 4.56D+03 ExpMxC= 6.82D+02 IAcc=3 IRadAn=         5 AccDes= 0.00D+00
 Harris functional with IExCor= 1009 and IRadAn=       5 diagonalized for initial guess.
 HarFok:  IExCor= 1009 AccDes= 0.00D+00 IRadAn=         5 IDoV= 1 UseB2=F ITyADJ=14
 ICtDFT=  3500011 ScaDFX=  1.000000  1.000000  1.000000  1.000000
 FoFCou: FMM=F IPFlag=           0 FMFlag=      100000 FMFlg1=           0
         NFxFlg=           0 DoJE=T BraDBF=F KetDBF=T FulRan=T
         wScrn=  0.000000 ICntrl=       500 IOpCl=  0 I1Cent=   200000004 NGrid=           0
         NMat0=    1 NMatS0=      1 NMatT0=    0 NMatD0=    1 NMtDS0=    0 NMtDT0=    0
 Petite list used in FoFCou.
 Requested convergence on RMS density matrix=1.00D-08 within  32 cycles.
 Requested convergence on MAX density matrix=1.00D-06.
 Requested convergence on             energy=1.00D-06.
 No special actions if energy rises.
 SCF Done:  E(RM08HX) =  -309.644711815     A.U. after   13 cycles
            NFock= 13  Conv=0.92D-08     -V/T= 2.0054
 QCSCF skips out because SCF is already converged.
 R6APFD:  NTU= -4 IXU= 1 FactS= 1.050
 Calling FoFJK, ICntrl=      2127 FMM=F ISym2X=0 I1Cent= 0 IOpClX= 0 NMat=1 NMatS=1 NMatT=0.
 ***** Axes restored to original set *****
 -------------------------------------------------------------------
 Center     Atomic                   Forces (Hartrees/Bohr)
 Number     Number              X              Y              Z
 -------------------------------------------------------------------
      1        6           0.001025853    0.001127357    0.000328398
      2        6          -0.002090579   -0.000167223   -0.000103512
      3        6          -0.003178708    0.001036007   -0.000871976
      4        6           0.000681611   -0.000171350    0.000220673
      5        6           0.001733547   -0.000527595    0.000192983
      6        6          -0.000159866   -0.000297964    0.000013287
      7        6           0.001501098   -0.001314611    0.000146626
      8        6          -0.000426359    0.000081383    0.000703959
      9        1           0.000684713   -0.000152927    0.000189166
     10        1           0.000907930   -0.000271823    0.000252149
     11        1           0.000166813   -0.000146861    0.000058674
     12        1           0.000270480    0.000081344    0.000015511
     13        1           0.000182493    0.000027094   -0.000143094
     14        1          -0.001651170   -0.000285587   -0.000327076
     15        1           0.000208543    0.000766334   -0.000547469
     16        1           0.000143600    0.000216420   -0.000128299
 -------------------------------------------------------------------
 Cartesian Forces:  Max     0.003178708 RMS     0.000829779

 GradGradGradGradGradGradGradGradGradGradGradGradGradGradGradGradGradGrad
 Berny optimization.
 Using GEDIIS/GDIIS optimizer.
 FormGI is forming the generalized inverse of G from B-inverse, IUseBI=4.
 Internal  Forces:  Max     0.002247111 RMS     0.000542475
 Search for a local minimum.
 Step number   2 out of a maximum of   82
 All quantities printed in internal units (Hartrees-Bohrs-Radians)
 Mixed Optimization -- En-DIIS/RFO-DIIS
 Update second derivatives using D2CorX and points    1    2
 DE= -1.41D-03 DEPred=-1.32D-03 R= 1.07D+00
 TightC=F SS=  1.41D+00  RLast= 1.49D-01 DXNew= 5.0454D-01 4.4552D-01
 Trust test= 1.07D+00 RLast= 1.49D-01 DXMaxT set to 4.46D-01
 ITU=  1  0
 Use linear search instead of GDIIS.
     Eigenvalues ---    0.01295   0.01909   0.02080   0.02145   0.02157
     Eigenvalues ---    0.02157   0.02157   0.02157   0.02157   0.02158
     Eigenvalues ---    0.02180   0.02764   0.02781   0.14240   0.15998
     Eigenvalues ---    0.15998   0.15999   0.15999   0.16000   0.16000
     Eigenvalues ---    0.16453   0.21602   0.21999   0.22012   0.23863
     Eigenvalues ---    0.24732   0.35054   0.35129   0.35157   0.35266
     Eigenvalues ---    0.35268   0.35321   0.35400   0.35515   0.38535
     Eigenvalues ---    0.42090   0.42529   0.46146   0.46482   0.46486
     Eigenvalues ---    0.46584   0.57698
 RFO step:  Lambda=-1.67347021D-04 EMin= 1.29491055D-02
 Quartic linear search produced a step of  0.10426.
 Iteration  1 RMS(Cart)=  0.01901573 RMS(Int)=  0.00025628
 Iteration  2 RMS(Cart)=  0.00033653 RMS(Int)=  0.00000869
 Iteration  3 RMS(Cart)=  0.00000009 RMS(Int)=  0.00000869
 Variable       Old X    -DE/DX   Delta X   Delta X   Delta X     New X
                                 (Linear)    (Quad)   (Total)
    R1        2.64182   0.00050   0.00062   0.00094   0.00156   2.64337
    R2        2.64549   0.00005   0.00101  -0.00037   0.00064   2.64613
    R3        2.78753  -0.00013   0.00404  -0.00215   0.00189   2.78942
    R4        2.63220  -0.00114  -0.00038  -0.00247  -0.00285   2.62935
    R5        2.05886   0.00038   0.00041   0.00102   0.00143   2.06029
    R6        2.63185  -0.00189  -0.00043  -0.00436  -0.00479   2.62706
    R7        2.05720   0.00038   0.00035   0.00104   0.00139   2.05859
    R8        2.63227   0.00010  -0.00038   0.00043   0.00005   2.63231
    R9        2.05752   0.00000   0.00053  -0.00022   0.00031   2.05783
   R10        2.63407   0.00053  -0.00019   0.00130   0.00111   2.63518
   R11        2.05768  -0.00002   0.00055  -0.00029   0.00025   2.05793
   R12        2.05762  -0.00017   0.00055  -0.00076  -0.00021   2.05741
   R13        2.51828   0.00058  -0.00320   0.00256  -0.00064   2.51764
   R14        2.06642  -0.00032   0.00111  -0.00149  -0.00038   2.06604
   R15        2.05532  -0.00004   0.00049  -0.00035   0.00014   2.05545
   R16        2.05862   0.00021   0.00104   0.00021   0.00125   2.05986
    A1        2.07184   0.00006  -0.00235   0.00132  -0.00104   2.07080
    A2        2.09033  -0.00084  -0.00043  -0.00350  -0.00392   2.08641
    A3        2.12101   0.00077   0.00278   0.00219   0.00497   2.12597
    A4        2.10738   0.00008   0.00135   0.00002   0.00136   2.10874
    A5        2.08495  -0.00065  -0.00280  -0.00328  -0.00608   2.07887
    A6        2.09075   0.00058   0.00144   0.00333   0.00476   2.09551
    A7        2.10507  -0.00009   0.00112  -0.00116  -0.00005   2.10502
    A8        2.09155  -0.00087  -0.00372  -0.00434  -0.00805   2.08350
    A9        2.08639   0.00096   0.00260   0.00545   0.00805   2.09443
   A10        2.09625  -0.00034   0.00019  -0.00156  -0.00138   2.09487
   A11        2.09314  -0.00006  -0.00016  -0.00075  -0.00091   2.09223
   A12        2.09378   0.00040  -0.00003   0.00232   0.00229   2.09608
   A13        2.09753   0.00017   0.00032   0.00052   0.00083   2.09836
   A14        2.09253  -0.00038  -0.00024  -0.00223  -0.00248   2.09005
   A15        2.09305   0.00021  -0.00009   0.00174   0.00165   2.09469
   A16        2.08805   0.00012  -0.00066   0.00089   0.00022   2.08827
   A17        2.09694  -0.00000   0.00027  -0.00002   0.00025   2.09719
   A18        2.09814  -0.00012   0.00038  -0.00086  -0.00048   2.09766
   A19        2.18930  -0.00116  -0.00163  -0.00509  -0.00672   2.18257
   A20        2.02981  -0.00109   0.00055  -0.00886  -0.00832   2.02149
   A21        2.06381   0.00225   0.00109   0.01390   0.01499   2.07880
   A22        2.10610   0.00117   0.00153   0.00736   0.00889   2.11499
   A23        2.12812  -0.00039  -0.00149  -0.00202  -0.00351   2.12461
   A24        2.04890  -0.00078  -0.00004  -0.00540  -0.00544   2.04345
    D1        0.02545  -0.00001   0.00267  -0.00199   0.00068   0.02613
    D2       -3.13119   0.00008   0.00125   0.00302   0.00426  -3.12693
    D3       -3.11994   0.00003   0.00224   0.00046   0.00271  -3.11723
    D4        0.00660   0.00012   0.00081   0.00548   0.00629   0.01290
    D5       -0.02226  -0.00003  -0.00235  -0.00016  -0.00250  -0.02477
    D6        3.09900  -0.00007  -0.00285  -0.00233  -0.00515   3.09385
    D7        3.12319  -0.00007  -0.00191  -0.00265  -0.00457   3.11863
    D8       -0.03873  -0.00011  -0.00241  -0.00482  -0.00721  -0.04594
    D9        2.64969   0.00043   0.00527   0.03189   0.03717   2.68686
   D10       -0.46618   0.00045   0.00480   0.03419   0.03899  -0.42719
   D11       -0.49581   0.00047   0.00483   0.03442   0.03925  -0.45656
   D12        2.67151   0.00050   0.00436   0.03672   0.04107   2.71258
   D13       -0.01405   0.00007  -0.00146   0.00448   0.00299  -0.01106
   D14        3.13163   0.00003  -0.00102   0.00204   0.00100   3.13263
   D15       -3.14054  -0.00000  -0.00003  -0.00050  -0.00053  -3.14107
   D16        0.00514  -0.00005   0.00041  -0.00294  -0.00253   0.00262
   D17        0.00769   0.00001   0.00082  -0.00012   0.00071   0.00840
   D18        3.13541   0.00002  -0.00027   0.00132   0.00106   3.13647
   D19       -3.11363   0.00007   0.00137   0.00215   0.00356  -3.11007
   D20        0.01408   0.00008   0.00029   0.00360   0.00391   0.01799
   D21       -0.00100  -0.00009  -0.00011  -0.00470  -0.00482  -0.00582
   D22       -3.13066  -0.00010   0.00103  -0.00579  -0.00476  -3.13542
   D23        3.13651  -0.00005  -0.00055  -0.00226  -0.00283   3.13368
   D24        0.00685  -0.00006   0.00059  -0.00336  -0.00277   0.00408
   D25        0.00413   0.00006   0.00043   0.00255   0.00299   0.00712
   D26        3.13379   0.00006  -0.00071   0.00365   0.00293   3.13672
   D27       -3.12357   0.00004   0.00152   0.00113   0.00267  -3.12090
   D28        0.00608   0.00005   0.00037   0.00224   0.00262   0.00869
   D29        3.13800   0.00016  -0.00184   0.00701   0.00518  -3.14000
   D30       -0.01638   0.00003  -0.00166   0.00171   0.00006  -0.01632
   D31       -0.02977   0.00009  -0.00138   0.00436   0.00298  -0.02679
   D32        3.09904  -0.00004  -0.00119  -0.00095  -0.00214   3.09690
         Item               Value     Threshold  Converged?
 Maximum Force            0.002247     0.000450     NO 
 RMS     Force            0.000542     0.000300     NO 
 Maximum Displacement     0.086153     0.001800     NO 
 RMS     Displacement     0.019022     0.001200     NO 
 Predicted change in Energy=-9.624581D-05
 GradGradGradGradGradGradGradGradGradGradGradGradGradGradGradGradGradGrad

                          Input orientation:                          
 ---------------------------------------------------------------------
 Center     Atomic      Atomic             Coordinates (Angstroms)
 Number     Number       Type             X           Y           Z
 ---------------------------------------------------------------------
      1          6           0        0.555701   -0.209775    0.097874
      2          6           0       -0.346024   -1.276924    0.028861
      3          6           0        0.051452    1.096545    0.093879
      4          6           0       -1.714678   -1.048289   -0.073553
      5          6           0       -1.315749    1.327239   -0.006832
      6          6           0       -2.203849    0.255775   -0.095242
      7          6           0        2.003965   -0.484493    0.174830
      8          6           0        2.962821    0.343793   -0.236872
      9          1           0        0.037533   -2.297352    0.045400
     10          1           0        0.739592    1.935275    0.192367
     11          1           0       -2.402247   -1.890511   -0.134695
     12          1           0       -1.693095    2.348779   -0.003763
     13          1           0       -3.274805    0.437101   -0.169517
     14          1           0        2.282658   -1.459968    0.582365
     15          1           0        4.013509    0.075828   -0.151221
     16          1           0        2.732016    1.308977   -0.687783
 ---------------------------------------------------------------------
                    Distance matrix (angstroms):
                    1          2          3          4          5
     1  C    0.000000
     2  C    1.398813   0.000000
     3  C    1.400270   2.407398   0.000000
     4  C    2.426338   1.391394   2.783444   0.000000
     5  C    2.423985   2.779084   1.390180   2.409716   0.000000
     6  C    2.805200   2.411655   2.414341   1.392961   1.394479
     7  C    1.476096   2.484291   2.513671   3.769333   3.786275
     8  C    2.492532   3.694021   3.025244   4.882987   4.396163
     9  H    2.151564   1.090259   3.394271   2.155123   3.869336
    10  H    2.154991   3.394631   1.089360   3.872443   2.152630
    11  H    3.410046   2.152043   3.872387   1.088957   3.398639
    12  H    3.407875   3.867995   2.149667   3.397853   1.089010
    13  H    3.893935   3.399264   3.401210   2.156290   2.157942
    14  H    2.186342   2.692553   3.428215   4.071659   4.589576
    15  H    3.478513   4.568139   4.098760   5.837962   5.476119
    16  H    2.767709   4.083478   2.800276   5.070214   4.104684
                    6          7          8          9         10
     6  C    0.000000
     7  C    4.280962   0.000000
     8  C    5.169360   1.332277   0.000000
     9  H    3.400299   2.677697   3.951282   0.000000
    10  H    3.401071   2.730243   2.767636   4.292973   0.000000
    11  H    2.155798   4.635450   5.812616   2.480016   4.961327
    12  H    2.156364   4.661285   5.074629   4.958228   2.475362
    13  H    1.088735   5.369668   6.238687   4.300582   4.300102
    14  H    4.850945   1.093300   2.094594   2.455632   3.749777
    15  H    6.220213   2.111525   1.087698   4.634547   3.780758
    16  H    5.081643   2.119127   1.090033   4.561075   2.266422
                   11         12         13         14         15
    11  H    0.000000
    12  H    4.300189   0.000000
    13  H    2.486031   2.486724   0.000000
    14  H    4.758978   5.536850   5.920270   0.000000
    15  H    6.710342   6.144378   7.297286   2.427481   0.000000
    16  H    6.074807   4.596812   6.091853   3.079327   1.857628
                   16
    16  H    0.000000
 Stoichiometry    C8H8
 Framework group  C1[X(C8H8)]
 Deg. of freedom    42
 Full point group                 C1      NOp   1
 Largest Abelian subgroup         C1      NOp   1
 Largest concise Abelian subgroup C1      NOp   1
                         Standard orientation:                         
 ---------------------------------------------------------------------
 Center     Atomic      Atomic             Coordinates (Angstroms)
 Number     Number       Type             X           Y           Z
 ---------------------------------------------------------------------
      1          6           0       -0.512098   -0.223575   -0.098272
      2          6           0        0.393952   -1.284474    0.002933
      3          6           0       -0.013090    1.084242   -0.135158
      4          6           0        1.761757   -1.047326    0.097006
      5          6           0        1.353252    1.323390   -0.042851
      6          6           0        2.245709    0.258723    0.077889
      7          6           0       -1.959307   -0.506313   -0.165403
      8          6           0       -2.921162    0.330492    0.221320
      9          1           0        0.014478   -2.306446    0.018325
     10          1           0       -0.704664    1.916773   -0.258946
     11          1           0        2.452744   -1.884506    0.183574
     12          1           0        1.726495    2.345841   -0.077869
     13          1           0        3.315986    0.446528    0.145565
     14          1           0       -2.234397   -1.495038   -0.542304
     15          1           0       -3.970833    0.055819    0.144936
     16          1           0       -2.693885    1.310083    0.641937
 ---------------------------------------------------------------------
 Rotational constants (GHZ):           5.1273201           1.5579862           1.2081347
 Standard basis: 6-311++G(d,p) (5D, 7F)
 There are   240 symmetry adapted cartesian basis functions of A   symmetry.
 There are   232 symmetry adapted basis functions of A   symmetry.
   232 basis functions,   360 primitive gaussians,   240 cartesian basis functions
    28 alpha electrons       28 beta electrons
       nuclear repulsion energy       320.5085928570 Hartrees.
 NAtoms=   16 NActive=   16 NUniq=   16 SFac= 1.00D+00 NAtFMM=   60 NAOKFM=F Big=F
 Integral buffers will be    131072 words long.
 Raffenetti 2 integral format.
 Two-electron integral symmetry is turned on.
 R6APFD:  NTU= -4 IXU= 1 FactS= 1.050
 Nuclear repulsion after empirical dispersion term =      320.5014880370 Hartrees.
 One-electron integrals computed using PRISM.
 NBasis=   232 RedAO= T EigKep=  1.06D-06  NBF=   232
 NBsUse=   232 1.00D-06 EigRej= -1.00D+00 NBFU=   232
 Initial guess from the checkpoint file:  "SYRE0160.chk"
 B after Tr=     0.000000    0.000000   -0.000000
         Rot=    0.999999    0.000904   -0.000047   -0.000701 Ang=   0.13 deg.
 ExpMin= 3.60D-02 ExpMax= 4.56D+03 ExpMxC= 6.82D+02 IAcc=3 IRadAn=         5 AccDes= 0.00D+00
 Harris functional with IExCor= 1009 and IRadAn=       5 diagonalized for initial guess.
 HarFok:  IExCor= 1009 AccDes= 0.00D+00 IRadAn=         5 IDoV= 1 UseB2=F ITyADJ=14
 ICtDFT=  3500011 ScaDFX=  1.000000  1.000000  1.000000  1.000000
 FoFCou: FMM=F IPFlag=           0 FMFlag=      100000 FMFlg1=           0
         NFxFlg=           0 DoJE=T BraDBF=F KetDBF=T FulRan=T
         wScrn=  0.000000 ICntrl=       500 IOpCl=  0 I1Cent=   200000004 NGrid=           0
         NMat0=    1 NMatS0=      1 NMatT0=    0 NMatD0=    1 NMtDS0=    0 NMtDT0=    0
 Petite list used in FoFCou.
 Requested convergence on RMS density matrix=1.00D-08 within  32 cycles.
 Requested convergence on MAX density matrix=1.00D-06.
 Requested convergence on             energy=1.00D-06.
 No special actions if energy rises.
 SCF Done:  E(RM08HX) =  -309.644830403     A.U. after   13 cycles
            NFock= 13  Conv=0.43D-08     -V/T= 2.0054
 QCSCF skips out because SCF is already converged.
 R6APFD:  NTU= -4 IXU= 1 FactS= 1.050
 Calling FoFJK, ICntrl=      2127 FMM=F ISym2X=0 I1Cent= 0 IOpClX= 0 NMat=1 NMatS=1 NMatT=0.
 ***** Axes restored to original set *****
 -------------------------------------------------------------------
 Center     Atomic                   Forces (Hartrees/Bohr)
 Number     Number              X              Y              Z
 -------------------------------------------------------------------
      1        6           0.000339308    0.000048659    0.000205726
      2        6           0.000432592   -0.000215068    0.000293447
      3        6           0.000008188    0.000087286   -0.000273464
      4        6          -0.000338267   -0.000035128   -0.000092338
      5        6           0.000178702    0.000215304    0.000058470
      6        6          -0.000184645   -0.000207123    0.000043149
      7        6          -0.000604425   -0.000457499    0.000059999
      8        6           0.000476085    0.000321960    0.000114027
      9        1          -0.000035057    0.000037837   -0.000001904
     10        1          -0.000281596    0.000024810    0.000016980
     11        1           0.000048283    0.000108729    0.000039252
     12        1          -0.000032284   -0.000101494   -0.000022588
     13        1           0.000118655    0.000032466   -0.000028700
     14        1          -0.000380011    0.000098867   -0.000383732
     15        1          -0.000050431    0.000262065   -0.000107533
     16        1           0.000304901   -0.000221671    0.000079209
 -------------------------------------------------------------------
 Cartesian Forces:  Max     0.000604425 RMS     0.000224864

 GradGradGradGradGradGradGradGradGradGradGradGradGradGradGradGradGradGrad
 Berny optimization.
 Using GEDIIS/GDIIS optimizer.
 FormGI is forming the generalized inverse of G from B-inverse, IUseBI=4.
 Internal  Forces:  Max     0.000720418 RMS     0.000219144
 Search for a local minimum.
 Step number   3 out of a maximum of   82
 All quantities printed in internal units (Hartrees-Bohrs-Radians)
 Mixed Optimization -- En-DIIS/RFO-DIIS
 Swapping is turned off.
 Update second derivatives using D2CorX and points    1    2    3
 DE= -1.19D-04 DEPred=-9.62D-05 R= 1.23D+00
 TightC=F SS=  1.41D+00  RLast= 8.51D-02 DXNew= 7.4927D-01 2.5518D-01
 Trust test= 1.23D+00 RLast= 8.51D-02 DXMaxT set to 4.46D-01
 ITU=  1  1  0
     Eigenvalues ---    0.00851   0.01912   0.02088   0.02149   0.02157
     Eigenvalues ---    0.02157   0.02157   0.02157   0.02158   0.02165
     Eigenvalues ---    0.02180   0.02765   0.02785   0.14366   0.15998
     Eigenvalues ---    0.15999   0.15999   0.16000   0.16000   0.16133
     Eigenvalues ---    0.16648   0.21938   0.22007   0.23186   0.23923
     Eigenvalues ---    0.25378   0.35083   0.35133   0.35248   0.35267
     Eigenvalues ---    0.35281   0.35318   0.35396   0.35849   0.38979
     Eigenvalues ---    0.42065   0.42518   0.46213   0.46482   0.46501
     Eigenvalues ---    0.47845   0.58301
 En-DIIS/RFO-DIIS/Sim-DIIS IScMMF=       -3 using points:     3    2
 RFO step:  Lambda=-5.20387893D-05.
 DidBck=F Rises=F RFO-DIIS coefs:    1.78134   -0.78134
 Iteration  1 RMS(Cart)=  0.01619077 RMS(Int)=  0.00016407
 Iteration  2 RMS(Cart)=  0.00022906 RMS(Int)=  0.00000398
 Iteration  3 RMS(Cart)=  0.00000002 RMS(Int)=  0.00000398
 Variable       Old X    -DE/DX   Delta X   Delta X   Delta X     New X
                                 (Linear)    (Quad)   (Total)
    R1        2.64337   0.00005   0.00122  -0.00060   0.00061   2.64399
    R2        2.64613   0.00022   0.00050   0.00053   0.00103   2.64716
    R3        2.78942  -0.00026   0.00148  -0.00090   0.00057   2.78999
    R4        2.62935   0.00025  -0.00222   0.00229   0.00007   2.62942
    R5        2.06029  -0.00005   0.00112  -0.00091   0.00021   2.06050
    R6        2.62706  -0.00005  -0.00374   0.00258  -0.00117   2.62589
    R7        2.05859  -0.00016   0.00109  -0.00130  -0.00021   2.05838
    R8        2.63231  -0.00010   0.00004  -0.00042  -0.00038   2.63193
    R9        2.05783  -0.00012   0.00024  -0.00047  -0.00023   2.05760
   R10        2.63518   0.00012   0.00087  -0.00039   0.00048   2.63566
   R11        2.05793  -0.00008   0.00020  -0.00030  -0.00011   2.05782
   R12        2.05741  -0.00011  -0.00016  -0.00013  -0.00029   2.05712
   R13        2.51764   0.00072  -0.00050   0.00119   0.00068   2.51832
   R14        2.06604  -0.00033  -0.00030  -0.00067  -0.00097   2.06507
   R15        2.05545  -0.00012   0.00011  -0.00039  -0.00028   2.05517
   R16        2.05986  -0.00030   0.00098  -0.00153  -0.00055   2.05931
    A1        2.07080  -0.00003  -0.00081  -0.00014  -0.00095   2.06985
    A2        2.08641  -0.00066  -0.00306  -0.00125  -0.00431   2.08210
    A3        2.12597   0.00070   0.00388   0.00138   0.00526   2.13123
    A4        2.10874   0.00002   0.00106  -0.00024   0.00082   2.10956
    A5        2.07887   0.00001  -0.00475   0.00291  -0.00184   2.07704
    A6        2.09551  -0.00003   0.00372  -0.00269   0.00102   2.09654
    A7        2.10502  -0.00004  -0.00004   0.00008   0.00004   2.10507
    A8        2.08350   0.00026  -0.00629   0.00576  -0.00053   2.08297
    A9        2.09443  -0.00022   0.00629  -0.00583   0.00045   2.09489
   A10        2.09487  -0.00004  -0.00108   0.00062  -0.00045   2.09442
   A11        2.09223   0.00005  -0.00071   0.00089   0.00018   2.09241
   A12        2.09608  -0.00001   0.00179  -0.00152   0.00027   2.09635
   A13        2.09836   0.00007   0.00065  -0.00007   0.00058   2.09894
   A14        2.09005   0.00003  -0.00193   0.00176  -0.00017   2.08988
   A15        2.09469  -0.00010   0.00129  -0.00169  -0.00040   2.09429
   A16        2.08827   0.00002   0.00018  -0.00025  -0.00007   2.08820
   A17        2.09719   0.00004   0.00020   0.00035   0.00055   2.09774
   A18        2.09766  -0.00007  -0.00037  -0.00010  -0.00047   2.09719
   A19        2.18257   0.00069  -0.00525   0.00759   0.00234   2.18491
   A20        2.02149  -0.00066  -0.00650   0.00052  -0.00598   2.01551
   A21        2.07880  -0.00004   0.01171  -0.00811   0.00360   2.08240
   A22        2.11499   0.00018   0.00694  -0.00337   0.00357   2.11856
   A23        2.12461   0.00017  -0.00274   0.00300   0.00026   2.12488
   A24        2.04345  -0.00035  -0.00425   0.00040  -0.00385   2.03960
    D1        0.02613   0.00001   0.00053   0.00104   0.00157   0.02770
    D2       -3.12693   0.00001   0.00333  -0.00152   0.00180  -3.12513
    D3       -3.11723  -0.00001   0.00212  -0.00141   0.00071  -3.11652
    D4        0.01290  -0.00001   0.00492  -0.00398   0.00093   0.01383
    D5       -0.02477  -0.00000  -0.00196   0.00046  -0.00150  -0.02627
    D6        3.09385  -0.00003  -0.00402   0.00075  -0.00327   3.09058
    D7        3.11863   0.00001  -0.00357   0.00297  -0.00060   3.11803
    D8       -0.04594  -0.00001  -0.00563   0.00326  -0.00237  -0.04830
    D9        2.68686   0.00027   0.02904   0.00464   0.03368   2.72054
   D10       -0.42719   0.00029   0.03046   0.00482   0.03527  -0.39192
   D11       -0.45656   0.00025   0.03067   0.00210   0.03278  -0.42378
   D12        2.71258   0.00027   0.03209   0.00228   0.03437   2.74695
   D13       -0.01106  -0.00001   0.00234  -0.00275  -0.00042  -0.01147
   D14        3.13263   0.00001   0.00078  -0.00036   0.00042   3.13305
   D15       -3.14107  -0.00001  -0.00042  -0.00020  -0.00062   3.14149
   D16        0.00262   0.00001  -0.00197   0.00219   0.00021   0.00283
   D17        0.00840  -0.00000   0.00056  -0.00026   0.00030   0.00870
   D18        3.13647   0.00001   0.00083  -0.00027   0.00055   3.13702
   D19       -3.11007   0.00001   0.00278  -0.00070   0.00209  -3.10799
   D20        0.01799   0.00002   0.00305  -0.00072   0.00234   0.02033
   D21       -0.00582   0.00000  -0.00377   0.00292  -0.00084  -0.00666
   D22       -3.13542  -0.00001  -0.00372   0.00246  -0.00126  -3.13667
   D23        3.13368  -0.00002  -0.00221   0.00053  -0.00168   3.13199
   D24        0.00408  -0.00003  -0.00216   0.00006  -0.00210   0.00198
   D25        0.00712   0.00000   0.00234  -0.00144   0.00090   0.00803
   D26        3.13672   0.00002   0.00229  -0.00097   0.00133   3.13804
   D27       -3.12090  -0.00001   0.00209  -0.00145   0.00064  -3.12026
   D28        0.00869   0.00001   0.00204  -0.00098   0.00106   0.00976
   D29       -3.14000   0.00001   0.00404  -0.00318   0.00087  -3.13913
   D30       -0.01632  -0.00000   0.00004  -0.00044  -0.00039  -0.01671
   D31       -0.02679  -0.00002   0.00233  -0.00323  -0.00091  -0.02770
   D32        3.09690  -0.00003  -0.00167  -0.00050  -0.00218   3.09472
         Item               Value     Threshold  Converged?
 Maximum Force            0.000720     0.000450     NO 
 RMS     Force            0.000219     0.000300     YES
 Maximum Displacement     0.074589     0.001800     NO 
 RMS     Displacement     0.016209     0.001200     NO 
 Predicted change in Energy=-2.614501D-05
 GradGradGradGradGradGradGradGradGradGradGradGradGradGradGradGradGradGrad

                          Input orientation:                          
 ---------------------------------------------------------------------
 Center     Atomic      Atomic             Coordinates (Angstroms)
 Number     Number       Type             X           Y           Z
 ---------------------------------------------------------------------
      1          6           0        0.555905   -0.207894    0.091174
      2          6           0       -0.346242   -1.275744    0.032747
      3          6           0        0.050018    1.098357    0.082886
      4          6           0       -1.715554   -1.048936   -0.065323
      5          6           0       -1.317210    1.327050   -0.013390
      6          6           0       -2.205339    0.254573   -0.092739
      7          6           0        2.003654   -0.488358    0.162710
      8          6           0        2.967620    0.346576   -0.224047
      9          1           0        0.039349   -2.295425    0.054469
     10          1           0        0.737847    1.937784    0.176233
     11          1           0       -2.402734   -1.891907   -0.117759
     12          1           0       -1.695378    2.348231   -0.014249
     13          1           0       -3.276350    0.435555   -0.164781
     14          1           0        2.272788   -1.476897    0.542894
     15          1           0        4.017682    0.074609   -0.145504
     16          1           0        2.742744    1.324426   -0.649222
 ---------------------------------------------------------------------
                    Distance matrix (angstroms):
                    1          2          3          4          5
     1  C    0.000000
     2  C    1.399138   0.000000
     3  C    1.400814   2.407465   0.000000
     4  C    2.427215   1.391430   2.783897   0.000000
     5  C    2.423953   2.778389   1.389562   2.409707   0.000000
     6  C    2.805738   2.411195   2.414426   1.392759   1.394732
     7  C    1.476399   2.481708   2.518080   3.768124   3.788781
     8  C    2.494629   3.698587   3.028496   4.889251   4.400623
     9  H    2.150806   1.090368   3.393918   2.155869   3.868745
    10  H    2.155057   3.394495   1.089248   3.872729   2.152258
    11  H    3.410733   2.152085   3.872716   1.088836   3.398668
    12  H    3.407809   3.867243   2.148960   3.397611   1.088954
    13  H    3.894319   3.398985   3.400790   2.156314   2.157756
    14  H    2.182226   2.675823   3.432819   4.057087   4.589081
    15  H    3.481339   4.571548   4.103971   5.842840   5.481527
    16  H    2.771002   4.094850   2.799618   5.084310   4.109442
                    6          7          8          9         10
     6  C    0.000000
     7  C    4.281684   0.000000
     8  C    5.175443   1.332639   0.000000
     9  H    3.400409   2.671273   3.953797   0.000000
    10  H    3.401160   2.736533   2.768403   4.292177   0.000000
    11  H    2.155683   4.633019   5.819176   2.481180   4.961473
    12  H    2.156299   4.664803   5.078798   4.957574   2.474941
    13  H    1.088582   5.370224   6.244886   4.301184   4.299624
    14  H    4.843102   1.092787   2.096674   2.428333   3.761719
    15  H    6.225846   2.113820   1.087549   4.635104   3.785796
    16  H    5.092915   2.119357   1.089741   4.572401   2.253263
                   11         12         13         14         15
    11  H    0.000000
    12  H    4.299981   0.000000
    13  H    2.486463   2.486054   0.000000
    14  H    4.740169   5.539707   5.911955   0.000000
    15  H    6.714886   6.150255   7.302983   2.434279   0.000000
    16  H    6.091239   4.598727   6.103627   3.080488   1.855058
                   16
    16  H    0.000000
 Stoichiometry    C8H8
 Framework group  C1[X(C8H8)]
 Deg. of freedom    42
 Full point group                 C1      NOp   1
 Largest Abelian subgroup         C1      NOp   1
 Largest concise Abelian subgroup C1      NOp   1
                         Standard orientation:                         
 ---------------------------------------------------------------------
 Center     Atomic      Atomic             Coordinates (Angstroms)
 Number     Number       Type             X           Y           Z
 ---------------------------------------------------------------------
      1          6           0       -0.512259   -0.222109   -0.092010
      2          6           0        0.394627   -1.283432    0.001462
      3          6           0       -0.012146    1.085903   -0.127682
      4          6           0        1.762973   -1.047452    0.091011
      5          6           0        1.354106    1.323699   -0.039987
      6          6           0        2.247006    0.258389    0.074559
      7          6           0       -1.958790   -0.511174   -0.153197
      8          6           0       -2.926243    0.331962    0.206086
      9          1           0        0.013536   -2.304956    0.014058
     10          1           0       -0.703726    1.918709   -0.248564
     11          1           0        2.453898   -1.885169    0.171125
     12          1           0        1.727757    2.345992   -0.073479
     13          1           0        3.317243    0.446387    0.139820
     14          1           0       -2.223744   -1.513034   -0.499979
     15          1           0       -3.975131    0.052906    0.137353
     16          1           0       -2.705476    1.324448    0.598219
 ---------------------------------------------------------------------
 Rotational constants (GHZ):           5.1334362           1.5567468           1.2060103
 Standard basis: 6-311++G(d,p) (5D, 7F)
 There are   240 symmetry adapted cartesian basis functions of A   symmetry.
 There are   232 symmetry adapted basis functions of A   symmetry.
   232 basis functions,   360 primitive gaussians,   240 cartesian basis functions
    28 alpha electrons       28 beta electrons
       nuclear repulsion energy       320.4584785595 Hartrees.
 NAtoms=   16 NActive=   16 NUniq=   16 SFac= 1.00D+00 NAtFMM=   60 NAOKFM=F Big=F
 Integral buffers will be    131072 words long.
 Raffenetti 2 integral format.
 Two-electron integral symmetry is turned on.
 R6APFD:  NTU= -4 IXU= 1 FactS= 1.050
 Nuclear repulsion after empirical dispersion term =      320.4513846491 Hartrees.
 One-electron integrals computed using PRISM.
 NBasis=   232 RedAO= T EigKep=  1.06D-06  NBF=   232
 NBsUse=   232 1.00D-06 EigRej= -1.00D+00 NBFU=   232
 Initial guess from the checkpoint file:  "SYRE0160.chk"
 B after Tr=    -0.000000   -0.000000    0.000000
         Rot=    1.000000    0.000352    0.000107   -0.000146 Ang=   0.05 deg.
 ExpMin= 3.60D-02 ExpMax= 4.56D+03 ExpMxC= 6.82D+02 IAcc=3 IRadAn=         5 AccDes= 0.00D+00
 Harris functional with IExCor= 1009 and IRadAn=       5 diagonalized for initial guess.
 HarFok:  IExCor= 1009 AccDes= 0.00D+00 IRadAn=         5 IDoV= 1 UseB2=F ITyADJ=14
 ICtDFT=  3500011 ScaDFX=  1.000000  1.000000  1.000000  1.000000
 FoFCou: FMM=F IPFlag=           0 FMFlag=      100000 FMFlg1=           0
         NFxFlg=           0 DoJE=T BraDBF=F KetDBF=T FulRan=T
[...]

 Dipole orientation:
     6          0.11421440         -0.43274104         -1.03270418
     6          0.19279681         -2.37258251          0.76167980
     6         -0.02696630          2.07048932         -0.18205939
     6          0.08524860         -1.84031010          3.33564264
     6         -0.13164422          2.60686920          2.38587651
     6         -0.08303511          0.65347704          4.15628869
     6          0.19002409         -1.09156116         -3.74004016
     6         -0.46427956          0.41407133         -5.65055989
     1          0.32445739         -4.32575594          0.11951791
     1         -0.01995847          3.61287438         -1.54405761
     1          0.13806482         -3.37638808          4.70340856
     1         -0.23416836          4.56276589          3.01683114
     1         -0.16013025          1.07915458          6.16735670
     1          0.81049883         -3.01668732         -4.15771024
     1         -0.35204388         -0.23327874         -7.59766862
     1         -1.15823803          2.32870144         -5.35061984

 Electric dipole moment (dipole orientation):
 (Debye = 10**-18 statcoulomb cm , SI units = C m)
                  (au)            (Debye)         (10**-30 SI)
   Tot        0.521865D-01      0.132645D+00      0.442455D+00
   x          0.000000D+00      0.000000D+00      0.000000D+00
   y          0.000000D+00      0.000000D+00      0.000000D+00
   z          0.521865D-01      0.132645D+00      0.442455D+00

 Dipole polarizability, Alpha (dipole orientation).
 (esu units = cm**3 , SI units = C**2 m**2 J**-1)
 Alpha(0;0):
               (au)            (10**-24 esu)      (10**-40 SI)
   iso        0.941111D+02      0.139458D+02      0.155168D+02
   aniso      0.681147D+02      0.100936D+02      0.112306D+02
   xx         0.550941D+02      0.816411D+01      0.908379D+01
   yx        -0.422025D+01     -0.625377D+00     -0.695826D+00
   yy         0.944194D+02      0.139915D+02      0.155677D+02
   zx         0.258395D+01      0.382903D+00      0.426036D+00
   zy        -0.341406D+01     -0.505911D+00     -0.562902D+00
   zz         0.132820D+03      0.196819D+02      0.218990D+02

 ----------------------------------------------------------------------
 1\1\GINC-PITOMBA\Freq\RM08HX\6-311++G(d,p)\C8H8\VALTER\27-Sep-2025\0\\
 #N Geom=AllCheck Guess=TCheck SCRF=Check GenChk RM08HX/6-311++G(d,p) F
 req\\SYRE0160\\0,1\C,0.5548719407,-0.207435359,0.0618415156\C,-0.34874
 02269,-1.2751736293,0.0387747077\C,0.0478124542,1.0983630677,0.0354885
 76\C,-1.7206654994,-1.0508526592,-0.0343332128\C,-1.321052692,1.324924
 8329,-0.0359407497\C,-2.2113742064,0.2512871073,-0.0748968308\C,2.0005
 878088,-0.4947721997,0.1167352716\C,2.9815862268,0.3598528913,-0.17322
 14447\H,0.0352848889,-2.295040093,0.0704633395\H,0.7313686337,1.944205
 0853,0.0898409072\H,-2.4080203333,-1.8949032914,-0.0569835759\H,-1.699
 51123,2.3458027662,-0.0520420654\H,-3.2835762186,0.4315681683,-0.12812
 60931\H,2.2603792832,-1.5164944227,0.404949022\H,4.0248411872,0.060194
 5252,-0.107236747\H,2.7850079832,1.38047321,-0.4992126202\\Version=ES6
 4L-G16RevB.01\State=1-A\HF=-309.6449235\RMSD=3.638e-09\RMSF=1.533e-06\
 ZeroPoint=0.1334614\Thermal=0.1401632\Dipole=-0.0521255,-0.0022731,-0.
 0010931\DipoleDeriv=0.1824156,0.0144975,-0.0145271,0.0481728,-0.072604
 3,0.0280209,-0.0753208,0.0282867,0.0254273,-0.1483453,-0.0661365,0.014
 9815,-0.0608424,0.0613347,-0.0105597,-0.0106121,-0.0119568,-0.1384736,
 -0.1029258,0.0577632,0.0226669,0.0825358,-0.0163232,0.0113508,0.035716
 2,0.0012408,-0.1222626,0.0534018,0.089619,0.0065998,0.0993543,0.035102
 2,-0.0000661,0.0225218,0.0077966,-0.1458275,-0.04861,-0.0583162,0.0035
 915,-0.085373,0.0880701,-0.0005446,-0.0053407,0.0036354,-0.1396399,-0.
 0139611,-0.0254478,0.0151303,0.0250544,-0.0465914,-0.0018109,0.0125861
 ,-0.004594,-0.1433555,0.3393257,-0.0111231,-0.0096062,-0.1150681,0.107
 8345,-0.084142,0.0754479,-0.0719586,-0.1482064,-0.2716535,-0.0735469,0
 .0182544,-0.1309981,-0.018933,-0.0905693,0.0487404,-0.0937341,-0.27160
 66,0.04525,0.0715455,-0.0088109,0.0576166,-0.0561974,0.0050121,-0.0087
 719,0.0063448,0.1377138,0.0131173,-0.0819767,-0.0105851,-0.0673951,-0.
 0047205,-0.0049283,-0.0126614,-0.0047592,0.1268708,-0.0043724,-0.07629
 63,-0.0045166,-0.0856638,-0.0253107,-0.0017767,-0.0065756,-0.0000356,0
 .1397167,0.0389404,0.0459491,-0.0038507,0.0625027,-0.0686295,0.0023028
 ,-0.0081138,-0.001595,0.1387968,-0.0820618,0.0254142,-0.011388,0.02688
 83,0.0674878,0.0014095,-0.0130866,0.0020379,0.1438166,0.0077182,0.0000
 686,0.0007305,0.0671468,-0.0722468,0.058768,-0.0156964,0.0518698,0.123
 191,-0.0683242,0.0226586,-0.000494,0.0435566,0.060261,0.0280334,-0.028
 5834,0.0264913,0.1441891,0.0600853,0.0653278,-0.0181764,0.0325121,-0.0
 385336,0.0595,-0.0102497,0.0609299,0.1296501\Polar=132.5039048,5.22286
 57,95.0957561,-0.6906506,-2.4506473,54.7337251\Quadrupole=2.6201659,2.
 8178635,-5.4380293,-0.008292,0.187843,-0.6827422\PG=C01 [X(C8H8)]\NIma
 g=0\\0.66520315,0.00141085,0.68088365,0.01784198,-0.01141418,0.1635437
 6,-0.20207494,-0.05873595,-0.00654558,0.69174695,-0.13050266,-0.247852
 78,-0.00183670,-0.02961455,0.72139594,-0.00635495,0.00219790,-0.069004
 55,0.02654941,-0.01015184,0.13891605,-0.14529269,0.02389477,-0.0023232
 9,0.06742158,0.00446785,0.00369166,0.71503957,0.08903503,-0.29495918,0
 .00446969,-0.04660355,-0.05289223,-0.00276164,0.03587284,0.69540684,-0
 .00281460,-0.00119042,-0.06890375,0.00428342,0.00095256,0.00829851,0.0
 3079125,0.00720225,0.13793003,-0.04271408,-0.07044301,-0.00142458,-0.3
 3855508,0.07024181,-0.01458998,-0.04850288,0.03782339,-0.00289010,0.69
 820822,-0.01364952,0.05761598,-0.00148208,-0.00537181,-0.13612242,0.00
 066565,0.03892361,-0.03285935,0.00269292,0.03733686,0.71641561,-0.0015
 1103,-0.00352707,0.00694103,-0.01386256,0.00412752,-0.06383617,-0.0025
 9338,0.00225392,-0.00605214,0.02731580,-0.00552054,0.13730125,-0.00893
 643,0.09325223,-0.00252846,-0.07142314,-0.02315687,-0.00342692,-0.3459
 0117,-0.00229041,-0.01312260,0.07126758,-0.05059800,0.00356915,0.68228
 429,0.03596915,0.02188090,0.00090109,-0.02560597,-0.01357541,-0.001345
 91,0.07416977,-0.13679846,0.00395698,0.00696137,-0.05587090,0.00108917
 ,-0.02748668,0.73485609,0.00005662,0.00484623,0.00659329,-0.00330249,-
 0.00119731,-0.00663641,-0.01446496,-0.00026811,-0.06253331,0.00308161,
 -0.00205173,0.00727409,0.02712225,-0.00146707,0.13739790,0.00032579,-0
 .01348297,0.00034214,-0.00578917,0.03684442,-0.00105495,-0.04317622,-0
 .01485823,-0.00312665,-0.15707710,0.10805006,-0.00574747,-0.21392909,-
 0.13919582,-0.00677384,0.74035112,-0.01265065,-0.07992142,0.00064197,0
 .09533035,0.01942230,0.00479339,-0.07253971,0.05768297,-0.00466226,0.0
 3107094,-0.31741455,0.00482009,-0.06214127,-0.25320232,-0.00271559,-0.
 01585797,0.66884559,0.00078233,-0.00026564,-0.00778586,-0.00154875,0.0
 0188726,0.00764389,-0.00237238,-0.00074611,0.00734261,-0.00516986,0.00
 848385,-0.06299435,-0.00677822,-0.00602924,-0.06322485,0.03054540,-0.0
 0550236,0.13568505,-0.23554280,0.02646273,-0.00533850,-0.03676502,-0.0
 0501212,0.00042288,-0.01957906,0.01797651,-0.00251619,0.00325632,-0.00
 408097,-0.00076060,0.00754059,0.00128366,-0.00090484,-0.00230516,-0.00
 095466,-0.00018821,0.70375379,0.04407575,-0.11113387,0.00785303,-0.029
 40905,0.00844742,-0.00085426,0.03200243,0.00039558,0.00136914,-0.00314
 014,-0.00437612,0.00040166,0.00181404,-0.00606752,-0.00048393,-0.00117
 235,-0.00113289,-0.00012026,0.12106800,0.70560713,-0.00933081,0.006602
 80,-0.06785051,-0.00001473,0.00020052,0.00508183,-0.00100296,0.0000217
 3,0.00456867,-0.00044159,0.00005123,0.00733263,-0.00066405,0.00046130,
 0.00658672,0.00051662,0.00004684,-0.00082653,-0.04985059,-0.16364260,0
 .18460897,-0.03636219,-0.02025908,0.00647058,-0.00022513,0.00609533,-0
 .00063147,0.00016927,-0.00412793,0.00139096,-0.00231601,0.00016417,-0.
 00030089,-0.00059042,-0.00109054,-0.00030331,-0.00011875,-0.00068472,-
 0.00004422,-0.34212011,-0.21201251,0.07359277,0.75841913,-0.00674529,0
 .01487001,-0.00246486,0.00407172,0.00025240,-0.00025483,0.00488037,-0.
 00315845,0.00069770,0.00030643,0.00090860,0.00011796,-0.00279455,-0.00
 071436,0.00050486,0.00097561,0.00118404,0.00000723,-0.20143235,-0.2973
 0653,0.07934347,0.09352806,0.67463860,0.00160747,-0.00118384,0.0064704
 5,-0.00156350,-0.00035689,0.00154625,-0.00027165,0.00003066,0.00038914
 ,0.00037327,-0.00044455,-0.00013773,-0.00006248,0.00030684,-0.00035717
 ,0.00002490,0.00032827,-0.00002363,0.07181941,0.08092039,-0.07943622,-
 0.04614676,-0.18155472,0.16706701,0.00985575,-0.01781607,0.00047412,-0
 .09149907,0.08969513,-0.00376731,-0.00203831,-0.00349325,-0.00042487,-
 0.00503674,0.02998693,-0.00064489,-0.00112706,-0.00071572,0.00001520,-
 0.00579933,0.00010913,-0.00066928,0.00094894,-0.00191735,0.00076631,0.
 00003448,0.00031644,-0.00010873,0.09480019,0.01132738,-0.01838496,0.00
 088498,0.08907266,-0.29849660,0.00791424,-0.00427561,-0.00213873,-0.00
 003539,-0.00094840,-0.00093503,-0.00011940,-0.00088533,0.00048853,-0.0
 0007037,0.00079237,0.00211100,0.00014342,0.00224551,0.00030749,0.00016
 482,-0.00048916,0.00045819,-0.00005330,-0.09664780,0.31680548,-0.00010
 006,-0.00064537,0.00391291,-0.00377272,0.00760195,-0.03767598,-0.00029
 935,-0.00021184,0.00650355,-0.00042700,0.00171070,0.00345059,0.0000629
 8,-0.00009144,-0.00100574,-0.00076508,-0.00000763,0.00734004,0.0003989
 0,-0.00055119,-0.00407613,0.00022165,0.00016513,-0.00000751,0.00454719
 ,-0.00848617,0.02580757,0.01118707,0.00773171,0.00055104,0.00005729,0.
 00272828,-0.00038859,-0.16575936,-0.13464258,-0.01032751,-0.00042563,0
 .00101208,0.00000165,-0.01371760,-0.02583868,-0.00092928,-0.00520970,0
 .00239055,-0.00066197,-0.00056582,-0.00068393,0.00031803,-0.00071038,0
 .00098298,0.00005844,0.00036651,0.00063406,0.00004914,0.17954305,-0.02
 058738,-0.01730105,-0.00142575,0.00359661,-0.00430094,0.00005981,-0.13
 538883,-0.22647730,-0.01100514,0.00105653,-0.00010676,0.00007494,0.005
 33585,0.00737821,0.00042448,0.00167188,0.00145274,-0.00009389,-0.00165
 489,0.00060174,0.00011322,0.00025001,-0.00026727,0.00017299,-0.0010628
 3,-0.00106296,0.00002680,0.14526734,0.23812096,-0.00128083,0.00130133,
 0.00383698,0.00003522,0.00047033,0.00667005,-0.01033125,-0.01218708,-0
 .03826199,-0.00015612,0.00016768,-0.00105140,-0.00047383,-0.00136255,0
 .00389023,-0.00067936,-0.00009630,0.00766361,0.00152292,0.00050849,-0.
 00382467,-0.00007086,-0.00110931,0.00014859,0.00004610,0.00000561,0.00
 020959,0.00956649,0.01229450,0.02568210,-0.00500698,0.00243994,-0.0007
 0704,-0.01341432,-0.02601084,-0.00050426,-0.00056593,0.00119541,-0.000
 00467,-0.16951509,-0.13610999,-0.00457556,0.00050418,0.00278140,-0.000
 36951,0.01069767,0.01006226,0.00019483,-0.00025873,-0.00149881,0.00003
 266,-0.00053872,0.00024423,-0.00003282,0.00051713,0.00044412,0.0002123
 1,0.00000261,-0.00010839,0.00004805,0.17676916,0.00178704,0.00152742,0
 .00015968,0.00522455,0.00738476,0.00018956,0.00119411,-0.00004909,0.00
 007433,-0.13623892,-0.22574929,-0.00426611,0.00336494,-0.00449147,0.00
 030115,-0.02103402,-0.01630899,-0.00078205,0.00023234,0.00020408,0.000
 03686,0.00001931,-0.00005155,-0.00000498,-0.00037844,0.00061297,-0.000
 08899,-0.00009368,-0.00000260,-0.00002221,0.14647831,0.23732733,-0.000
 74777,-0.00000931,0.00772213,-0.00068938,-0.00144143,0.00329936,-0.000
 06288,0.00015719,-0.00103492,-0.00461532,-0.00415138,-0.03806854,-0.00
 046609,0.00028936,0.00743436,0.00069178,0.00080088,0.00360136,0.000041
 70,-0.00011990,0.00006864,-0.00005471,-0.00001336,-0.00010121,0.000218
 20,-0.00004727,-0.00402916,0.00005745,0.00000404,-0.00107439,0.0053954
 4,0.00451025,0.02611410,-0.00572182,0.00021947,-0.00055154,-0.00127697
 ,-0.00078986,-0.00004295,-0.00533677,0.03009222,-0.00028478,-0.0019262
 8,-0.00370217,-0.00039392,-0.09183611,0.09013540,-0.00263997,0.0112067
 5,-0.01944563,0.00035502,0.00028506,0.00150057,-0.00011342,-0.00008644
 ,-0.00004167,-0.00002857,0.00006419,0.00008140,0.00004925,0.00053448,-
 0.00033985,0.00024842,0.00035677,-0.00103329,0.00005590,0.09368544,0.0
 0063416,0.00203002,0.00000071,-0.00080311,0.00064720,-0.00004442,-0.00
 098012,-0.00107610,-0.00005796,-0.00425451,-0.00209280,-0.00021969,0.0
 9034267,-0.30292605,0.00375107,0.01164908,-0.01695864,0.00051379,-0.00
 022208,-0.00017097,0.00002137,0.00011918,-0.00001411,-0.00000959,0.000
 07740,-0.00007186,0.00001153,0.00040545,0.00067305,0.00004169,0.000571
 96,-0.00097700,0.00006295,-0.09717671,0.32038012,-0.00087556,0.0003413
 3,0.00801392,-0.00027605,-0.00013336,-0.00101817,-0.00009003,0.0011975
 0,0.00352497,-0.00023361,-0.00028123,0.00718169,-0.00301007,0.00341740
 ,-0.03824130,0.00054540,-0.00053765,0.00347364,0.00016016,0.00009158,0
 .00006658,0.00002754,0.00001322,-0.00002781,0.00004943,-0.00002242,-0.
 00100360,0.00027215,0.00009457,-0.00427515,0.00002559,-0.00006232,0.00
 007821,0.00312039,-0.00406533,0.02619274,0.00071241,-0.00041202,0.0000
 9143,0.00146957,0.00222211,-0.00027539,-0.00043634,-0.00388262,-0.0003
 7845,-0.00649038,-0.00149518,-0.00044557,-0.01436419,0.00676244,-0.000
 85137,-0.32923763,0.04551979,-0.01435985,-0.00001095,0.00006718,0.0000
 1235,-0.00004255,-0.00006602,0.00003188,-0.00043580,-0.00011412,-0.000
 03869,-0.00080508,0.00032738,-0.00004396,0.00056104,0.00046410,0.00021
 043,0.00054653,-0.00045010,0.00022274,0.34852547,-0.00036316,-0.001553
 09,0.00002533,0.00164978,-0.00528256,0.00024135,-0.00328981,-0.0033781
 0,-0.00014079,0.02960916,0.00080589,0.00142847,-0.02437987,0.00866691,
 -0.00114687,0.04553619,-0.06620862,0.00235020,0.00004717,0.00011528,0.
 00000648,-0.00001282,0.00002869,0.00002151,0.00147199,-0.00017341,0.00
 009987,-0.00121944,0.00019419,-0.00008309,-0.00043477,0.00055908,-0.00
 008722,0.00043974,0.00056927,0.00000696,-0.04900749,0.06554570,-0.0001
 6852,-0.00006845,-0.00074647,-0.00018323,0.00036532,0.00738515,-0.0002
 6812,-0.00014208,0.00699820,-0.00093170,0.00011855,0.00334239,-0.00074
 718,0.00013498,0.00320027,-0.01420748,0.00230506,-0.03797448,0.0003508
 3,-0.00004935,-0.00113008,0.00001714,-0.00011941,0.00005089,-0.0000699
 5,0.00001913,0.00011087,-0.00009990,-0.00002045,0.00004032,0.00022779,
 -0.00003109,-0.00399615,0.00020531,-0.00000191,-0.00381439,0.01584991,
 -0.00265666,0.02639701,-0.00628295,0.02841570,-0.00717273,0.00118968,0
 .00220411,0.00039023,-0.00562782,-0.00107613,-0.00065918,-0.00016027,-
 0.00025938,0.00006538,0.00028540,0.00159231,0.00042934,0.00002065,-0.0
 0028322,-0.00010123,-0.07142988,0.06204708,-0.01854868,0.00776033,-0.0
 2414792,0.00744475,-0.00075376,-0.00133751,-0.00019920,0.00016516,0.00
 010351,-0.00008419,-0.00002454,-0.00000528,-0.00001084,-0.00045679,0.0
 0008380,0.00002131,-0.00000101,-0.00009266,-0.00000020,0.07748702,0.00
 004649,-0.00531330,0.00190099,-0.00170177,0.00066619,-0.00051076,0.000
 91688,0.00103117,0.00067992,0.00044625,0.00007989,-0.00035811,-0.00013
 927,-0.00037763,-0.00014008,-0.00006406,0.00024499,0.00004187,0.060987
 04,-0.28822094,0.07006976,0.00665082,-0.01616505,0.00659025,0.00030562
 ,0.00038962,0.00033266,-0.00015023,0.00009521,0.00003718,0.00005514,0.
 00000200,0.00002242,0.00012940,-0.00001258,-0.00002530,0.00001390,0.00
 003895,0.00007738,-0.06415913,0.30729678,0.00218377,0.00110828,0.00340
 890,0.00029801,-0.00004300,-0.00068127,-0.00051907,0.00011175,0.001577
 68,-0.00008882,-0.00009014,-0.00009729,0.00068926,0.00025610,0.0000039
 5,-0.00016237,-0.00033574,0.00005302,-0.01967930,0.06917752,-0.0603923
 0,-0.00086938,0.00853604,0.00420531,-0.00031996,-0.00020023,0.00019645
 ,0.00000016,0.00004851,0.00004283,-0.00001312,0.00000604,-0.00001144,-
 0.00001416,-0.00000828,-0.00021363,-0.00000327,-0.00002453,0.00003408,
 0.01727763,-0.07972015,0.04863853,0.00004532,-0.00341913,0.00130773,-0
 .00081794,0.00064823,0.00004097,0.00030055,-0.00023712,-0.00006338,-0.
 00020670,-0.00035472,-0.00012752,0.00002414,0.00011984,-0.00000923,0.0
 0003974,-0.00007143,0.00001774,-0.01752526,0.00954475,-0.00237501,-0.3
 1669595,0.07782972,-0.01658648,0.00001362,-0.00006216,0.00004784,0.000
 13755,-0.00002082,-0.00005623,-0.00010757,0.00001770,-0.00001921,-0.00
 003645,0.00001669,-0.00000125,-0.00001776,0.00000441,0.00000194,0.0005
 9474,-0.00058218,-0.00004549,0.33564315,-0.00180801,-0.00164298,0.0041
 1926,-0.00042608,0.00050335,-0.00011228,-0.00016048,-0.00071737,-0.000
 29315,-0.00012758,-0.00006764,-0.00028313,0.00007957,0.00039333,-0.000
 10057,0.00000224,-0.00008856,0.00006492,-0.02235808,0.00854449,-0.0001
 4635,0.08296911,-0.07710888,0.01124580,0.00003310,-0.00002940,0.000073
 46,-0.00011298,0.00053088,0.00018167,-0.00008155,0.00000758,0.00000742
 ,-0.00004529,0.00000978,-0.00001072,0.00002721,0.00003042,0.00000291,-
 0.00026433,0.00015710,-0.00252118,-0.08212838,0.07324830,0.00013229,0.
 00422386,0.01055967,0.00149374,-0.00028100,-0.00003907,-0.00085556,0.0
 0015229,-0.00037968,-0.00026795,0.00065258,-0.00069810,0.00053459,0.00
 008030,-0.00001324,-0.00021440,-0.00047857,0.00006936,0.00819255,-0.00
 186585,0.00511077,-0.01855289,0.01135579,-0.03639360,0.00000329,0.0000
 1507,0.00019394,-0.00003319,-0.00001972,-0.00021836,0.00007693,-0.0000
 1207,0.00000382,0.00000041,0.00000768,0.00001095,0.00000779,-0.0000179
 8,-0.00003382,-0.00027360,-0.00224445,-0.00716357,0.01728990,-0.013633
 25,0.02647968,0.00060539,0.00074084,-0.00048732,-0.00004429,-0.0000603
 8,-0.00005838,-0.00071442,-0.00078358,0.00014735,0.00019412,0.00014804
 ,0.00001142,-0.00008097,0.00015807,-0.00015621,0.00000043,0.00014624,-
 0.00000136,0.01031809,-0.02228566,0.00710311,-0.06657656,0.05209224,-0
 .01655913,0.00008927,0.00016258,0.00001286,-0.00480015,0.00155389,0.00
 170943,0.00002331,0.00000123,-0.00000471,-0.00000160,-0.00001375,0.000
 04187,0.00002667,0.00004158,0.00002337,-0.00276596,-0.00275488,0.00126
 611,-0.00139118,0.02440154,-0.00753390,0.06511785,0.00202081,-0.000745
 36,-0.00233318,-0.00067381,-0.00019660,-0.00002597,0.00031194,-0.00001
 222,-0.00024069,0.00029982,-0.00023111,-0.00001967,-0.00031705,0.00036
 015,-0.00018616,0.00014357,0.00029236,0.00004702,0.00541218,-0.0158143
 8,0.00664854,0.04888076,-0.29755436,0.08399116,0.00003574,0.00011966,0
 .00006054,0.00158908,0.00047188,-0.00014796,-0.00002840,0.00000476,0.0
 0001537,-0.00002374,-0.00000934,-0.00002424,0.00002346,0.00004141,0.00
 006607,-0.00282096,0.00008759,0.00369903,-0.00130541,-0.00377039,0.002
 06531,-0.05354799,0.31695595,0.00057967,-0.00231745,-0.00671191,-0.000
 90080,-0.00016393,0.00005053,0.00097198,0.00071987,0.00003244,0.000465
 95,-0.00052152,0.00011206,-0.00069832,-0.00059732,-0.00036880,0.000065
 35,0.00059961,-0.00004288,-0.00367112,0.00736554,0.00411164,-0.0147461
 5,0.08477510,-0.06339277,-0.00011486,-0.00011273,0.00007262,0.00156589
 ,-0.00074892,0.00052168,-0.00000662,-0.00000804,-0.00000616,0.00003462
 ,-0.00000362,0.00005135,-0.00002997,-0.00002302,0.00013622,0.00142122,
 0.00324642,0.01039875,0.00057768,0.00140518,0.00251125,0.01448549,-0.0
 9361517,0.05252398\\-0.00000028,-0.00000230,0.00000133,-0.00000164,0.0
 0000114,-0.00000021,0.00000231,0.00000109,0.00000050,-0.00000078,0.000
 00199,-0.00000081,0.00000029,0.00000095,0.00000213,-0.00000086,0.00000
 038,0.00000220,-0.00000098,-0.00000311,-0.00000201,0.00000056,-0.00000
 063,-0.00000532,-0.00000136,-0.00000021,-0.00000203,0.00000094,-0.0000
 0003,0.00000005,-0.00000058,0.00000100,-0.00000009,0.00000143,0.000000
 78,0.00000226,0.00000035,0.00000207,0.00000203,0.00000036,-0.00000113,
 -0.00000101,-0.00000014,-0.00000201,-0.00000073,0.00000037,0.00000001,
 0.00000173\\\@


 MY DESCRIPTION OF EXPERIENCE IS NOT WHAT HAPPENS
 TO A MAN.  EXPERIENCE IS WHAT A MAN DOES WITH WHAT
 HAPPENS TO HIM.
                         - CHUCK KNOX, SEATTLE SEAHAWKS, 1985
 Job cpu time:       0 days  1 hours 26 minutes 47.8 seconds.
 Elapsed time:       0 days  0 hours  5 minutes 27.4 seconds.
 File lengths (MBytes):  RWF=     83 Int=      0 D2E=      0 Chk=      6 Scr=      1
 Normal termination of Gaussian 16 at Sat Sep 27 14:31:01 2025.
