 Entering Gaussian System, Link 0=g16
 Input=TBUE0056.gjf
 Output=TBUE0056.log
 Initial command:
 /usr/local/g16/l1.exe "/dados_01/scratch/Gau-2728431.inp" -scrdir="/dados_01/scratch/"
 Entering Link 1 = /usr/local/g16/l1.exe PID=   2728432.
  
 Copyright (c) 1988-2017, Gaussian, Inc.  All Rights Reserved.
  
 This is part of the Gaussian(R) 16 program.  It is based on
 the Gaussian(R) 09 system (copyright 2009, Gaussian, Inc.),
 the Gaussian(R) 03 system (copyright 2003, Gaussian, Inc.),
 the Gaussian(R) 98 system (copyright 1998, Gaussian, Inc.),
 the Gaussian(R) 94 system (copyright 1995, Gaussian, Inc.),
 the Gaussian 92(TM) system (copyright 1992, Gaussian, Inc.),
 the Gaussian 90(TM) system (copyright 1990, Gaussian, Inc.),
 the Gaussian 88(TM) system (copyright 1988, Gaussian, Inc.),
 the Gaussian 86(TM) system (copyright 1986, Carnegie Mellon
 University), and the Gaussian 82(TM) system (copyright 1983,
 Carnegie Mellon University). Gaussian is a federally registered
 trademark of Gaussian, Inc.
  
 This software contains proprietary and confidential information,
 including trade secrets, belonging to Gaussian, Inc.
  
 This software is provided under written license and may be
 used, copied, transmitted, or stored only in accord with that
 written license.
  
 The following legend is applicable only to US Government
 contracts under FAR:
  
                    RESTRICTED RIGHTS LEGEND
  
 Use, reproduction and disclosure by the US Government is
 subject to restrictions as set forth in subparagraphs (a)
 and (c) of the Commercial Computer Software - Restricted
 Rights clause in FAR 52.227-19.
  
 Gaussian, Inc.
 340 Quinnipiac St., Bldg. 40, Wallingford CT 06492
  
  
 ---------------------------------------------------------------
 Warning -- This program may not be used in any manner that
 competes with the business of Gaussian, Inc. or will provide
 assistance to any competitor of Gaussian, Inc.  The licensee
 of this program is prohibited from giving any competitor of
 Gaussian, Inc. access to this program.  By using this program,
 the user acknowledges that Gaussian, Inc. is engaged in the
 business of creating and licensing software in the field of
 computational chemistry and represents and warrants to the
 licensee that it is not a competitor of Gaussian, Inc. and that
 it will not use this program in any manner prohibited above.
 ---------------------------------------------------------------
  

 Cite this work as:
 Gaussian 16, Revision B.01,
 M. J. Frisch, G. W. Trucks, H. B. Schlegel, G. E. Scuseria, 
 M. A. Robb, J. R. Cheeseman, G. Scalmani, V. Barone, 
 G. A. Petersson, H. Nakatsuji, X. Li, M. Caricato, A. V. Marenich, 
 J. Bloino, B. G. Janesko, R. Gomperts, B. Mennucci, H. P. Hratchian, 
 J. V. Ortiz, A. F. Izmaylov, J. L. Sonnenberg, D. Williams-Young, 
 F. Ding, F. Lipparini, F. Egidi, J. Goings, B. Peng, A. Petrone, 
 T. Henderson, D. Ranasinghe, V. G. Zakrzewski, J. Gao, N. Rega, 
 G. Zheng, W. Liang, M. Hada, M. Ehara, K. Toyota, R. Fukuda, 
 J. Hasegawa, M. Ishida, T. Nakajima, Y. Honda, O. Kitao, H. Nakai, 
 T. Vreven, K. Throssell, J. A. Montgomery, Jr., J. E. Peralta, 
 F. Ogliaro, M. J. Bearpark, J. J. Heyd, E. N. Brothers, K. N. Kudin, 
 V. N. Staroverov, T. A. Keith, R. Kobayashi, J. Normand, 
 K. Raghavachari, A. P. Rendell, J. C. Burant, S. S. Iyengar, 
 J. Tomasi, M. Cossi, J. M. Millam, M. Klene, C. Adamo, R. Cammi, 
 J. W. Ochterski, R. L. Martin, K. Morokuma, O. Farkas, 
 J. B. Foresman, and D. J. Fox, Gaussian, Inc., Wallingford CT, 2016.
 
 ******************************************
 Gaussian 16:  ES64L-G16RevB.01 20-Dec-2017
                15-Oct-2025 
 ******************************************
 %nprocs=16
 Will use up to   16 processors via shared memory.
 %mem=40GB
 %chk=TBUE0056.chk
 ----------------------------------------------------------------------
 # opt freq=noraman M08HX/6-311++G** scf=xqc Empiricaldispersion=pfd In
 t(Grid=ultraFine)
 ----------------------------------------------------------------------
 1/18=20,19=15,26=4,38=1/1,3;
 2/9=110,12=2,17=6,18=5,40=1/2;
 3/5=4,6=6,7=1111,11=2,25=1,30=1,71=1,74=-74,75=-5,124=11/1,2,3;
 4//1;
 5/5=2,8=3,13=1,38=5/2,8;
 6/7=2,8=2,9=2,10=2,28=1/1;
 7//1,2,3,16;
 1/18=20,19=15,26=4/3(2);
 2/9=110/2;
 99//99;
 2/9=110/2;
 3/5=4,6=6,7=1111,11=2,25=1,30=1,71=1,74=-74,75=-5,124=11/1,2,3;
 4/5=5,16=3,69=1/1;
 5/5=2,8=3,13=1,38=5/2,8;
 7//1,2,3,16;
 1/18=20,19=15,26=4/3(-5);
 2/9=110/2;
 6/7=2,8=2,9=2,10=2,19=2,28=1/1;
 99/9=1/99;
 --------
 TBUE0056
 --------
 Symbolic Z-matrix:
 Charge =  0 Multiplicity = 1
 C                    -2.1145    0.394    -0.052 
 C                     0.2246   -1.0163    0.2478 
 C                    -1.2651   -0.7168    0.6503 
 C                    -1.4338    1.75      0.2575 
 C                    -3.5444    0.4726    0.5154 
 C                    -2.1888    0.2452   -1.5772 
 C                     0.7239   -2.1424    1.1866 
 C                     0.2934   -1.5524   -1.1897 
 C                     1.0989    0.2       0.5509 
 C                     2.268     0.6337    0.0371 
 C                     3.0094    1.8696    0.4518 
 C                     2.9284   -0.1371   -1.0784 
 H                    -1.2919   -0.5133    1.7321 
 H                    -1.8275   -1.6562    0.5369 
 H                    -0.515     1.9059   -0.3127 
 H                    -2.0942    2.5774   -0.0338 
 H                    -1.2359    1.8751    1.3274 
 H                    -4.1183    1.2897    0.0641 
 H                    -4.0859   -0.4607    0.325 
 H                    -3.53      0.6332    1.5992 
 H                    -1.2532    0.5103   -2.0732 
 H                    -2.9457    0.92     -1.9959 
 H                    -2.4747   -0.7722   -1.8626 
 H                     0.1244   -3.0521    1.0628 
 H                     1.7682   -2.407     0.9831 
 H                     0.6603   -1.8473    2.241 
 H                     0.3426   -0.7615   -1.9393 
 H                    -0.5764   -2.1799   -1.4172 
 H                     1.1598   -2.2029   -1.3491 
 H                     0.755     0.7746    1.4124 
 H                     3.9989    1.6108    0.8419 
 H                     2.4738    2.4156    1.2354 
 H                     3.1322    2.5459   -0.4003 
 H                     2.4475    0.0634   -2.0397 
 H                     2.9689   -1.209    -0.8724 
 H                     3.9759    0.1715   -1.1824 
 

 GradGradGradGradGradGradGradGradGradGradGradGradGradGradGradGradGradGrad
 Berny optimization.
 Initialization pass.
                           ----------------------------
                           !    Initial Parameters    !
                           ! (Angstroms and Degrees)  !
 --------------------------                            --------------------------
 ! Name  Definition              Value          Derivative Info.                !
 --------------------------------------------------------------------------------
 ! R1    R(1,3)                  1.5648         estimate D2E/DX2                !
 ! R2    R(1,4)                  1.5485         estimate D2E/DX2                !
 ! R3    R(1,5)                  1.5404         estimate D2E/DX2                !
 ! R4    R(1,6)                  1.5342         estimate D2E/DX2                !
 ! R5    R(2,3)                  1.5719         estimate D2E/DX2                !
 ! R6    R(2,7)                  1.5488         estimate D2E/DX2                !
 ! R7    R(2,8)                  1.5358         estimate D2E/DX2                !
 ! R8    R(2,9)                  1.5283         estimate D2E/DX2                !
 ! R9    R(3,13)                 1.1011         estimate D2E/DX2                !
 ! R10   R(3,14)                 1.1007         estimate D2E/DX2                !
 ! R11   R(4,15)                 1.0925         estimate D2E/DX2                !
 ! R12   R(4,16)                 1.098          estimate D2E/DX2                !
 ! R13   R(4,17)                 1.0952         estimate D2E/DX2                !
 ! R14   R(5,18)                 1.0958         estimate D2E/DX2                !
 ! R15   R(5,19)                 1.0957         estimate D2E/DX2                !
 ! R16   R(5,20)                 1.0957         estimate D2E/DX2                !
 ! R17   R(6,21)                 1.0916         estimate D2E/DX2                !
 ! R18   R(6,22)                 1.0971         estimate D2E/DX2                !
 ! R19   R(6,23)                 1.0947         estimate D2E/DX2                !
 ! R20   R(7,24)                 1.0965         estimate D2E/DX2                !
 ! R21   R(7,25)                 1.0964         estimate D2E/DX2                !
 ! R22   R(7,26)                 1.0968         estimate D2E/DX2                !
 ! R23   R(8,27)                 1.0908         estimate D2E/DX2                !
 ! R24   R(8,28)                 1.0964         estimate D2E/DX2                !
 ! R25   R(8,29)                 1.0951         estimate D2E/DX2                !
 ! R26   R(9,10)                 1.3487         estimate D2E/DX2                !
 ! R27   R(9,30)                 1.0912         estimate D2E/DX2                !
 ! R28   R(10,11)                1.4997         estimate D2E/DX2                !
 ! R29   R(10,12)                1.5082         estimate D2E/DX2                !
 ! R30   R(11,31)                1.0947         estimate D2E/DX2                !
 ! R31   R(11,32)                1.095          estimate D2E/DX2                !
 ! R32   R(11,33)                1.0948         estimate D2E/DX2                !
 ! R33   R(12,34)                1.0934         estimate D2E/DX2                !
 ! R34   R(12,35)                1.0923         estimate D2E/DX2                !
 ! R35   R(12,36)                1.097          estimate D2E/DX2                !
 ! A1    A(3,1,4)              107.0557         estimate D2E/DX2                !
 ! A2    A(3,1,5)              112.0114         estimate D2E/DX2                !
 ! A3    A(3,1,6)              113.8039         estimate D2E/DX2                !
 ! A4    A(4,1,5)              106.8432         estimate D2E/DX2                !
 ! A5    A(4,1,6)              107.7527         estimate D2E/DX2                !
 ! A6    A(5,1,6)              109.0369         estimate D2E/DX2                !
 ! A7    A(3,2,7)              106.7887         estimate D2E/DX2                !
 ! A8    A(3,2,8)              110.4043         estimate D2E/DX2                !
 ! A9    A(3,2,9)              109.8609         estimate D2E/DX2                !
 ! A10   A(7,2,8)              107.4047         estimate D2E/DX2                !
 ! A11   A(7,2,9)              105.9032         estimate D2E/DX2                !
 ! A12   A(8,2,9)              115.9654         estimate D2E/DX2                !
 ! A13   A(1,3,2)              122.3276         estimate D2E/DX2                !
 ! A14   A(1,3,13)             107.2499         estimate D2E/DX2                !
 ! A15   A(1,3,14)             106.3941         estimate D2E/DX2                !
 ! A16   A(2,3,13)             108.0501         estimate D2E/DX2                !
 ! A17   A(2,3,14)             107.1709         estimate D2E/DX2                !
 ! A18   A(13,3,14)            104.2709         estimate D2E/DX2                !
 ! A19   A(1,4,15)             112.9747         estimate D2E/DX2                !
 ! A20   A(1,4,16)             110.0268         estimate D2E/DX2                !
 ! A21   A(1,4,17)             112.006          estimate D2E/DX2                !
 ! A22   A(15,4,16)            105.0598         estimate D2E/DX2                !
 ! A23   A(15,4,17)            109.9733         estimate D2E/DX2                !
 ! A24   A(16,4,17)            106.3663         estimate D2E/DX2                !
 ! A25   A(1,5,18)             111.8715         estimate D2E/DX2                !
 ! A26   A(1,5,19)             110.5665         estimate D2E/DX2                !
 ! A27   A(1,5,20)             111.077          estimate D2E/DX2                !
 ! A28   A(18,5,19)            107.7442         estimate D2E/DX2                !
 ! A29   A(18,5,20)            107.756          estimate D2E/DX2                !
 ! A30   A(19,5,20)            107.6513         estimate D2E/DX2                !
 ! A31   A(1,6,21)             112.7451         estimate D2E/DX2                !
 ! A32   A(1,6,22)             110.6807         estimate D2E/DX2                !
 ! A33   A(1,6,23)             111.2213         estimate D2E/DX2                !
 ! A34   A(21,6,22)            105.577          estimate D2E/DX2                !
 ! A35   A(21,6,23)            109.335          estimate D2E/DX2                !
 ! A36   A(22,6,23)            106.9766         estimate D2E/DX2                !
 ! A37   A(2,7,24)             111.0098         estimate D2E/DX2                !
 ! A38   A(2,7,25)             111.7183         estimate D2E/DX2                !
 ! A39   A(2,7,26)             111.6177         estimate D2E/DX2                !
 ! A40   A(24,7,25)            107.4335         estimate D2E/DX2                !
 ! A41   A(24,7,26)            107.4618         estimate D2E/DX2                !
 ! A42   A(25,7,26)            107.3747         estimate D2E/DX2                !
 ! A43   A(2,8,27)             113.0885         estimate D2E/DX2                !
 ! A44   A(2,8,28)             111.0065         estimate D2E/DX2                !
 ! A45   A(2,8,29)             112.2749         estimate D2E/DX2                !
 ! A46   A(27,8,28)            107.9489         estimate D2E/DX2                !
 ! A47   A(27,8,29)            107.1568         estimate D2E/DX2                !
 ! A48   A(28,8,29)            104.9207         estimate D2E/DX2                !
 ! A49   A(2,9,10)             132.5542         estimate D2E/DX2                !
 ! A50   A(2,9,30)             113.2898         estimate D2E/DX2                !
 ! A51   A(10,9,30)            113.8695         estimate D2E/DX2                !
 ! A52   A(9,10,11)            126.0302         estimate D2E/DX2                !
 ! A53   A(9,10,12)            119.8022         estimate D2E/DX2                !
 ! A54   A(11,10,12)           114.1567         estimate D2E/DX2                !
 ! A55   A(10,11,31)           110.5231         estimate D2E/DX2                !
 ! A56   A(10,11,32)           111.5305         estimate D2E/DX2                !
 ! A57   A(10,11,33)           110.4454         estimate D2E/DX2                !
 ! A58   A(31,11,32)           107.7589         estimate D2E/DX2                !
 ! A59   A(31,11,33)           108.7857         estimate D2E/DX2                !
 ! A60   A(32,11,33)           107.6875         estimate D2E/DX2                !
 ! A61   A(10,12,34)           111.3437         estimate D2E/DX2                !
 ! A62   A(10,12,35)           112.228          estimate D2E/DX2                !
 ! A63   A(10,12,36)           110.1502         estimate D2E/DX2                !
 ! A64   A(34,12,35)           111.2273         estimate D2E/DX2                !
 ! A65   A(34,12,36)           106.5616         estimate D2E/DX2                !
 ! A66   A(35,12,36)           104.9842         estimate D2E/DX2                !
 ! D1    D(4,1,3,2)            -63.8989         estimate D2E/DX2                !
 ! D2    D(4,1,3,13)            61.5838         estimate D2E/DX2                !
 ! D3    D(4,1,3,14)           172.709          estimate D2E/DX2                !
 ! D4    D(5,1,3,2)            179.2974         estimate D2E/DX2                !
 ! D5    D(5,1,3,13)           -55.2199         estimate D2E/DX2                !
 ! D6    D(5,1,3,14)            55.9053         estimate D2E/DX2                !
 ! D7    D(6,1,3,2)             55.0433         estimate D2E/DX2                !
 ! D8    D(6,1,3,13)          -179.4741         estimate D2E/DX2                !
 ! D9    D(6,1,3,14)           -68.3489         estimate D2E/DX2                !
 ! D10   D(3,1,4,15)            74.4845         estimate D2E/DX2                !
 ! D11   D(3,1,4,16)          -168.4566         estimate D2E/DX2                !
 ! D12   D(3,1,4,17)           -50.3709         estimate D2E/DX2                !
 ! D13   D(5,1,4,15)          -165.3512         estimate D2E/DX2                !
 ! D14   D(5,1,4,16)           -48.2922         estimate D2E/DX2                !
 ! D15   D(5,1,4,17)            69.7935         estimate D2E/DX2                !
 ! D16   D(6,1,4,15)           -48.3017         estimate D2E/DX2                !
 ! D17   D(6,1,4,16)            68.7572         estimate D2E/DX2                !
 ! D18   D(6,1,4,17)          -173.1571         estimate D2E/DX2                !
 ! D19   D(3,1,5,18)           176.6125         estimate D2E/DX2                !
 ! D20   D(3,1,5,19)           -63.2963         estimate D2E/DX2                !
 ! D21   D(3,1,5,20)            56.1556         estimate D2E/DX2                !
 ! D22   D(4,1,5,18)            59.681          estimate D2E/DX2                !
 ! D23   D(4,1,5,19)           179.7722         estimate D2E/DX2                !
 ! D24   D(4,1,5,20)           -60.7759         estimate D2E/DX2                !
 ! D25   D(6,1,5,18)           -56.5165         estimate D2E/DX2                !
 ! D26   D(6,1,5,19)            63.5747         estimate D2E/DX2                !
 ! D27   D(6,1,5,20)          -176.9734         estimate D2E/DX2                !
 ! D28   D(3,1,6,21)           -73.123          estimate D2E/DX2                !
 ! D29   D(3,1,6,22)           168.8761         estimate D2E/DX2                !
 ! D30   D(3,1,6,23)            50.1011         estimate D2E/DX2                !
 ! D31   D(4,1,6,21)            45.4208         estimate D2E/DX2                !
 ! D32   D(4,1,6,22)           -72.5801         estimate D2E/DX2                !
 ! D33   D(4,1,6,23)           168.6449         estimate D2E/DX2                !
 ! D34   D(5,1,6,21)           161.0351         estimate D2E/DX2                !
 ! D35   D(5,1,6,22)            43.0342         estimate D2E/DX2                !
 ! D36   D(5,1,6,23)           -75.7408         estimate D2E/DX2                !
 ! D37   D(7,2,3,1)            178.5166         estimate D2E/DX2                !
 ! D38   D(7,2,3,13)            53.3936         estimate D2E/DX2                !
 ! D39   D(7,2,3,14)           -58.449          estimate D2E/DX2                !
 ! D40   D(8,2,3,1)            -65.023          estimate D2E/DX2                !
 ! D41   D(8,2,3,13)           169.854          estimate D2E/DX2                !
 ! D42   D(8,2,3,14)            58.0114         estimate D2E/DX2                !
 ! D43   D(9,2,3,1)             64.1046         estimate D2E/DX2                !
 ! D44   D(9,2,3,13)           -61.0184         estimate D2E/DX2                !
 ! D45   D(9,2,3,14)          -172.8611         estimate D2E/DX2                !
 ! D46   D(3,2,7,24)            60.8948         estimate D2E/DX2                !
 ! D47   D(3,2,7,25)          -179.2087         estimate D2E/DX2                !
 ! D48   D(3,2,7,26)           -58.9701         estimate D2E/DX2                !
 ! D49   D(8,2,7,24)           -57.5435         estimate D2E/DX2                !
 ! D50   D(8,2,7,25)            62.353          estimate D2E/DX2                !
 ! D51   D(8,2,7,26)          -177.4083         estimate D2E/DX2                !
 ! D52   D(9,2,7,24)           177.9563         estimate D2E/DX2                !
 ! D53   D(9,2,7,25)           -62.1472         estimate D2E/DX2                !
 ! D54   D(9,2,7,26)            58.0915         estimate D2E/DX2                !
 ! D55   D(3,2,8,27)            86.2653         estimate D2E/DX2                !
 ! D56   D(3,2,8,28)           -35.238          estimate D2E/DX2                !
 ! D57   D(3,2,8,29)          -152.3252         estimate D2E/DX2                !
 ! D58   D(7,2,8,27)          -157.6582         estimate D2E/DX2                !
 ! D59   D(7,2,8,28)            80.8386         estimate D2E/DX2                !
 ! D60   D(7,2,8,29)           -36.2486         estimate D2E/DX2                !
 ! D61   D(9,2,8,27)           -39.4903         estimate D2E/DX2                !
 ! D62   D(9,2,8,28)          -160.9935         estimate D2E/DX2                !
 ! D63   D(9,2,8,29)            81.9193         estimate D2E/DX2                !
 ! D64   D(3,2,9,10)          -155.0256         estimate D2E/DX2                !
 ! D65   D(3,2,9,30)            31.6354         estimate D2E/DX2                !
 ! D66   D(7,2,9,10)            89.9975         estimate D2E/DX2                !
 ! D67   D(7,2,9,30)           -83.3414         estimate D2E/DX2                !
 ! D68   D(8,2,9,10)           -28.9948         estimate D2E/DX2                !
 ! D69   D(8,2,9,30)           157.6662         estimate D2E/DX2                !
 ! D70   D(2,9,10,11)         -179.9968         estimate D2E/DX2                !
 ! D71   D(2,9,10,12)            1.2782         estimate D2E/DX2                !
 ! D72   D(30,9,10,11)          -6.6875         estimate D2E/DX2                !
 ! D73   D(30,9,10,12)         174.5875         estimate D2E/DX2                !
 ! D74   D(9,10,11,31)         118.861          estimate D2E/DX2                !
 ! D75   D(9,10,11,32)          -0.9935         estimate D2E/DX2                !
 ! D76   D(9,10,11,33)        -120.7063         estimate D2E/DX2                !
 ! D77   D(12,10,11,31)        -62.3515         estimate D2E/DX2                !
 ! D78   D(12,10,11,32)        177.7939         estimate D2E/DX2                !
 ! D79   D(12,10,11,33)         58.0812         estimate D2E/DX2                !
 ! D80   D(9,10,12,34)          77.9853         estimate D2E/DX2                !
 ! D81   D(9,10,12,35)         -47.439          estimate D2E/DX2                !
 ! D82   D(9,10,12,36)        -164.0208         estimate D2E/DX2                !
 ! D83   D(11,10,12,34)       -100.8846         estimate D2E/DX2                !
 ! D84   D(11,10,12,35)        133.691          estimate D2E/DX2                !
 ! D85   D(11,10,12,36)         17.1093         estimate D2E/DX2                !
 --------------------------------------------------------------------------------
 Trust Radius=3.00D-01 FncErr=1.00D-07 GrdErr=1.00D-06 EigMax=2.50D+02 EigMin=1.00D-04
 Number of steps in this run=    196 maximum allowed number of steps=    216.
 GradGradGradGradGradGradGradGradGradGradGradGradGradGradGradGradGradGrad

                          Input orientation:                          
 ---------------------------------------------------------------------
 Center     Atomic      Atomic             Coordinates (Angstroms)
 Number     Number       Type             X           Y           Z
 ---------------------------------------------------------------------
      1          6           0       -2.114500    0.394000   -0.052000
      2          6           0        0.224600   -1.016300    0.247800
      3          6           0       -1.265100   -0.716800    0.650300
      4          6           0       -1.433800    1.750000    0.257500
      5          6           0       -3.544400    0.472600    0.515400
      6          6           0       -2.188800    0.245200   -1.577200
      7          6           0        0.723900   -2.142400    1.186600
      8          6           0        0.293400   -1.552400   -1.189700
      9          6           0        1.098900    0.200000    0.550900
     10          6           0        2.268000    0.633700    0.037100
     11          6           0        3.009400    1.869600    0.451800
     12          6           0        2.928400   -0.137100   -1.078400
     13          1           0       -1.291900   -0.513300    1.732100
     14          1           0       -1.827500   -1.656200    0.536900
     15          1           0       -0.515000    1.905900   -0.312700
     16          1           0       -2.094200    2.577400   -0.033800
     17          1           0       -1.235900    1.875100    1.327400
     18          1           0       -4.118300    1.289700    0.064100
     19          1           0       -4.085900   -0.460700    0.325000
     20          1           0       -3.530000    0.633200    1.599200
     21          1           0       -1.253200    0.510300   -2.073200
     22          1           0       -2.945700    0.920000   -1.995900
     23          1           0       -2.474700   -0.772200   -1.862600
     24          1           0        0.124400   -3.052100    1.062800
     25          1           0        1.768200   -2.407000    0.983100
     26          1           0        0.660300   -1.847300    2.241000
     27          1           0        0.342600   -0.761500   -1.939300
     28          1           0       -0.576400   -2.179900   -1.417200
     29          1           0        1.159800   -2.202900   -1.349100
     30          1           0        0.755000    0.774600    1.412400
     31          1           0        3.998900    1.610800    0.841900
     32          1           0        2.473800    2.415600    1.235400
     33          1           0        3.132200    2.545900   -0.400300
     34          1           0        2.447500    0.063400   -2.039700
     35          1           0        2.968900   -1.209000   -0.872400
     36          1           0        3.975900    0.171500   -1.182400
 ---------------------------------------------------------------------
                    Distance matrix (angstroms):
                    1          2          3          4          5
     1  C    0.000000
     2  C    2.747765   0.000000
     3  C    1.564795   1.571914   0.000000
     4  C    1.548509   3.225337   2.503568   0.000000
     5  C    1.540368   4.061255   2.574506   2.480503   0.000000
     6  C    1.534241   3.278187   2.596232   2.490095   2.503665
     7  C    4.002995   1.548789   2.505209   4.546391   5.050457
     8  C    3.298608   1.535755   2.552009   3.997931   4.662263
     9  C    3.275220   1.528285   2.537498   2.983815   4.651431
    10  C    4.389955   2.634839   3.831796   3.872728   5.834271
    11  C    5.355890   4.015613   5.000022   4.449054   6.701339
    12  C    5.173626   3.137249   4.572734   4.937060   6.693958
    13  H    2.163996   2.180809   1.101100   2.705015   2.743376
    14  H    2.152323   2.168909   1.100739   3.440242   2.734958
    15  H    2.216350   3.066011   2.892849   1.092532   3.452153
    16  H    2.183570   4.286118   3.465134   1.097987   2.614361
    17  H    2.206431   3.414497   2.679041   1.095217   2.820554
    18  H    2.197947   4.920586   3.537008   2.730535   1.095758
    19  H    2.181527   4.346845   2.851021   3.453315   1.095684
    20  H    2.187994   4.317888   2.802264   2.727903   1.095729
    21  H    2.200139   3.146656   2.987201   2.646060   3.457147
    22  H    2.178604   4.339844   3.536369   2.837702   2.620160
    23  H    2.183584   3.435054   2.789421   3.455400   2.889406
    24  H    4.258058   2.195164   2.748544   5.112403   5.116957
    25  H    4.898203   2.203954   3.488329   5.297164   6.060904
    26  H    4.240376   2.203007   2.741445   4.610867   5.102855
    27  H    3.306724   2.205052   3.048397   3.780100   4.759971
    28  H    3.294614   2.183527   2.624791   4.357048   4.424898
    29  H    4.375774   2.198342   3.476526   4.993330   5.723998
    30  H    3.243972   2.201122   2.624095   2.660084   4.402346
    31  H    6.297088   4.636804   5.758830   5.465815   7.635671
    32  H    5.176559   4.220449   4.912601   4.082726   6.364934
    33  H    5.681536   4.643645   5.575412   4.681294   7.050820
    34  H    4.987193   3.367446   4.650614   4.815209   6.526779
    35  H    5.392923   2.970381   4.526327   5.423663   6.868540
    36  H    6.198410   4.186716   5.622806   5.816341   7.715445
                    6          7          8          9         10
     6  C    0.000000
     7  C    4.671514   0.000000
     8  C    3.089149   2.486007   0.000000
     9  C    3.916609   2.455927   2.597965   0.000000
    10  C    4.756045   3.378213   3.191100   1.348659   0.000000
    11  C    5.811781   4.675424   4.667040   2.539172   1.499700
    12  C    5.155646   3.743164   2.993107   2.472918   1.508178
    13  H    3.511583   2.648582   3.482789   2.760427   4.106278
    14  H    2.866231   2.677339   2.736812   3.465471   4.718746
    15  H    2.675536   4.491270   3.658207   2.502114   3.079926
    16  H    2.798248   5.630948   4.908359   4.023654   4.776168
    17  H    3.464288   4.472242   4.519105   2.976609   3.934878
    18  H    2.740039   6.040382   5.395613   5.351971   6.419960
    19  H    2.777706   5.167654   4.760714   5.231606   6.453886
    20  H    3.469709   5.096063   5.212792   4.765848   6.004745
    21  H    1.091623   4.644571   2.725303   3.537593   4.106999
    22  H    1.097070   5.742174   4.153852   4.833568   5.603367
    23  H    1.094666   4.626674   2.953622   4.420495   5.298926
    24  H    4.815878   1.096486   2.711350   3.433343   4.385454
    25  H    5.408063   1.096352   2.761600   2.726024   3.223441
    26  H    5.203324   1.096763   3.462843   2.690770   3.687443
    27  H    2.748190   3.438535   1.090800   2.774449   3.091910
    28  H    2.916598   2.910663   1.096387   3.513399   4.256988
    29  H    4.154316   2.573605   1.095083   3.063925   3.346036
    30  H    4.228940   2.925892   3.521211   1.091153   2.049505
    31  H    6.782665   4.993091   5.278633   3.238061   2.144398
    32  H    5.861842   4.882612   5.136173   2.695881   2.157184
    33  H    5.915349   5.504391   5.047574   3.246897   2.143518
    34  H    4.662857   4.271459   2.823731   2.923797   2.161148
    35  H    5.404934   3.186023   2.716045   2.740066   2.171173
    36  H    6.177769   4.641314   4.066041   3.358909   2.148891
                   11         12         13         14         15
    11  C    0.000000
    12  C    2.524860   0.000000
    13  H    5.081197   5.084424   0.000000
    14  H    5.986160   5.247423   1.738272   0.000000
    15  H    3.606546   4.076414   3.261489   3.890120   0.000000
    16  H    5.175280   5.803982   3.648906   4.280210   1.738554
    17  H    4.334660   5.213273   2.423092   3.666737   1.791807
    18  H    7.161753   7.279907   3.744539   3.761600   3.674976
    19  H    7.469248   7.160632   3.128759   2.564077   4.331141
    20  H    6.753441   7.033764   2.518177   3.044395   3.790165
    21  H    5.137420   4.346784   3.940757   3.440373   2.364741
    22  H    6.508163   6.038569   4.322891   3.781832   3.116643
    23  H    6.512366   5.496527   3.793140   2.637788   3.662627
    24  H    5.737567   4.576503   2.983182   2.456628   5.184843
    25  H    4.484659   3.278459   3.675774   3.700250   5.049080
    26  H    4.747089   4.368922   2.418599   3.021527   4.689267
    27  H    4.444307   2.795959   4.026459   3.411948   3.239804
    28  H    5.722724   4.070803   3.634224   2.378659   4.232901
    29  H    4.821775   2.732902   4.284784   3.574890   4.556459
    30  H    2.684045   3.429132   2.439404   3.653025   2.422542
    31  H    1.094653   2.808679   5.770340   6.686797   4.668563
    32  H    1.094994   3.475142   4.796422   5.963945   3.404311
    33  H    1.094777   2.774859   5.786060   6.567695   3.703963
    34  H    3.128204   1.093418   5.342487   5.279348   3.892781
    35  H    3.351555   1.092266   5.042007   5.019120   4.706743
    36  H    2.547209   1.096953   6.059124   6.322652   4.892106
                   16         17         18         19         20
    16  H    0.000000
    17  H    1.755782   0.000000
    18  H    2.400987   3.201070   0.000000
    19  H    3.650433   3.818804   1.770034   0.000000
    20  H    2.916869   2.622801   1.770204   1.768962   0.000000
    21  H    3.023133   3.664295   3.658458   3.836456   4.322666
    22  H    2.705894   3.857454   2.399014   2.931376   3.653547
    23  H    3.835246   4.326537   3.265735   2.734701   3.882379
    24  H    6.149471   5.118372   6.152165   4.998633   5.217643
    25  H    6.387211   5.242093   7.011493   6.204165   6.139488
    26  H    5.686823   4.276272   6.116754   5.302842   4.911558
    27  H    4.551613   4.484936   5.302892   4.982885   5.428002
    28  H    5.181642   4.940728   5.174691   4.278726   5.073062
    29  H    5.930413   5.434438   6.484885   5.775400   6.223356
    30  H    3.668722   2.276402   5.082548   5.112995   4.291400
    31  H    6.231134   5.263905   8.160699   8.361955   7.629780
    32  H    4.743804   3.749997   6.789358   7.220221   6.273350
    33  H    5.239329   4.745020   7.373158   7.852813   7.213968
    34  H    5.565148   5.309148   7.002822   6.967912   7.021166
    35  H    6.377700   5.659606   7.572908   7.194715   7.192928
    36  H    6.629762   6.030274   8.265604   8.225847   8.018042
                   21         22         23         24         25
    21  H    0.000000
    22  H    1.743097   0.000000
    23  H    1.783598   1.761576   0.000000
    24  H    4.941960   5.878668   4.528933   0.000000
    25  H    5.194273   6.493398   5.364026   1.767649   0.000000
    26  H    5.275612   6.213896   5.274808   1.768301   1.767207
    27  H    2.044990   3.693719   2.818364   3.782468   3.644232
    28  H    2.850539   3.944345   2.404900   2.720708   3.363059
    29  H    3.702478   5.198652   3.939565   2.758705   2.418877
    30  H    4.031393   5.033173   4.852749   3.894035   3.366519
    31  H    6.106837   7.533776   7.409488   6.066563   4.597682
    32  H    5.335497   6.484528   6.651866   5.953588   4.880471
    33  H    5.116053   6.490790   6.677233   6.521129   5.320292
    34  H    3.727737   5.460979   4.995763   4.972790   3.962530
    35  H    4.714238   6.385717   5.550142   3.902973   2.513914
    36  H    5.315242   7.009321   6.554653   5.501506   4.026412
                   26         27         28         29         30
    26  H    0.000000
    27  H    4.330682   0.000000
    28  H    3.875884   1.768900   0.000000
    29  H    3.642083   1.758916   1.737687   0.000000
    30  H    2.751346   3.709929   4.302131   4.081085   0.000000
    31  H    5.006215   5.170243   6.356596   5.235005   3.398174
    32  H    4.740499   4.971388   6.120345   5.453144   2.382957
    33  H    5.690954   4.592307   6.092699   5.228928   3.474833
    34  H    5.016897   2.262995   3.816264   2.696519   3.909905
    35  H    3.928145   2.869840   3.715993   2.118472   3.749178
    36  H    5.175754   3.826781   5.129098   3.687273   4.179822
                   31         32         33         34         35
    31  H    0.000000
    32  H    1.768750   0.000000
    33  H    1.780068   1.768045   0.000000
    34  H    3.620070   4.032346   3.052745   0.000000
    35  H    3.457021   4.222046   3.787984   1.803732   0.000000
    36  H    2.483929   3.624644   2.638425   1.755749   1.736643
                   36
    36  H    0.000000
 Stoichiometry    C12H24
 Framework group  C1[X(C12H24)]
 Deg. of freedom   102
 Full point group                 C1      NOp   1
 Largest Abelian subgroup         C1      NOp   1
 Largest concise Abelian subgroup C1      NOp   1
                         Standard orientation:                         
 ---------------------------------------------------------------------
 Center     Atomic      Atomic             Coordinates (Angstroms)
 Number     Number       Type             X           Y           Z
 ---------------------------------------------------------------------
      1          6           0       -2.093685   -0.379908    0.060593
      2          6           0        0.249409    1.007609   -0.306727
      3          6           0       -1.245003    0.701884   -0.686434
      4          6           0       -1.421974   -1.749105   -0.207699
      5          6           0       -3.528647   -0.470825   -0.491996
      6          6           0       -2.154491   -0.178462    1.580336
      7          6           0        0.746095    2.098314   -1.287753
      8          6           0        0.332777    1.592398    1.110882
      9          6           0        1.115420   -0.222717   -0.575017
     10          6           0        2.286741   -0.644334   -0.056241
     11          6           0        3.018830   -1.897418   -0.434295
     12          6           0        2.960082    0.161015    1.026637
     13          1           0       -1.281830    0.461498   -1.760342
     14          1           0       -1.802019    1.647411   -0.600771
     15          1           0       -0.499165   -1.889907    0.359950
     16          1           0       -2.083782   -2.562719    0.117288
     17          1           0       -1.233644   -1.911848   -1.274258
     18          1           0       -4.102569   -1.269082   -0.008173
     19          1           0       -4.064146    0.471145   -0.329344
     20          1           0       -3.524091   -0.668610   -1.569716
     21          1           0       -1.216018   -0.431030    2.077447
     22          1           0       -2.911010   -0.834714    2.028192
     23          1           0       -2.433211    0.849547    1.832936
     24          1           0        0.151929    3.014700   -1.190372
     25          1           0        1.793295    2.364544   -1.102061
     26          1           0        0.672270    1.767507   -2.330828
     27          1           0        0.384552    0.827465    1.886795
     28          1           0       -0.532130    2.231660    1.323821
     29          1           0        1.203526    2.243667    1.240699
     30          1           0        0.761614   -0.824838   -1.413400
     31          1           0        4.006227   -1.657091   -0.841182
     32          1           0        2.474121   -2.467327   -1.194235
     33          1           0        3.145598   -2.544666    0.439510
     34          1           0        2.486327   -0.003967    1.998182
     35          1           0        3.003882    1.224995    0.783588
     36          1           0        4.006958   -0.149042    1.132568
 ---------------------------------------------------------------------
 Rotational constants (GHZ):           1.2699053           0.5719410           0.5034397
 Standard basis: 6-311++G(d,p) (5D, 7F)
 There are   444 symmetry adapted cartesian basis functions of A   symmetry.
 There are   432 symmetry adapted basis functions of A   symmetry.
   432 basis functions,   648 primitive gaussians,   444 cartesian basis functions
    48 alpha electrons       48 beta electrons
       nuclear repulsion energy       781.3568175770 Hartrees.
 NAtoms=   36 NActive=   36 NUniq=   36 SFac= 1.00D+00 NAtFMM=   60 NAOKFM=F Big=F
 Integral buffers will be    131072 words long.
 Raffenetti 2 integral format.
 Two-electron integral symmetry is turned on.
 R6APFD:  NTU= -4 IXU= 1 FactS= 1.050
 Nuclear repulsion after empirical dispersion term =      781.3228979176 Hartrees.
 One-electron integrals computed using PRISM.
 NBasis=   432 RedAO= T EigKep=  2.68D-06  NBF=   432
 NBsUse=   431 1.00D-06 EigRej=  9.61D-07 NBFU=   431
 ExpMin= 3.60D-02 ExpMax= 4.56D+03 ExpMxC= 6.82D+02 IAcc=3 IRadAn=         5 AccDes= 0.00D+00
 Harris functional with IExCor= 1009 and IRadAn=       5 diagonalized for initial guess.
 HarFok:  IExCor= 1009 AccDes= 0.00D+00 IRadAn=         5 IDoV= 1 UseB2=F ITyADJ=14
 ICtDFT=  3500011 ScaDFX=  1.000000  1.000000  1.000000  1.000000
 FoFCou: FMM=F IPFlag=           0 FMFlag=      100000 FMFlg1=           0
         NFxFlg=           0 DoJE=T BraDBF=F KetDBF=T FulRan=T
         wScrn=  0.000000 ICntrl=       500 IOpCl=  0 I1Cent=   200000004 NGrid=           0
         NMat0=    1 NMatS0=      1 NMatT0=    0 NMatD0=    1 NMtDS0=    0 NMtDT0=    0
 Petite list used in FoFCou.
 Requested convergence on RMS density matrix=1.00D-08 within  32 cycles.
 Requested convergence on MAX density matrix=1.00D-06.
 Requested convergence on             energy=1.00D-06.
 No special actions if energy rises.
 SCF Done:  E(RM08HX) =  -471.767413480     A.U. after   13 cycles
            NFock= 13  Conv=0.47D-08     -V/T= 2.0063
 QCSCF skips out because SCF is already converged.

 **********************************************************************

            Population analysis using the SCF Density.

 **********************************************************************

 Orbital symmetries:
       Occupied  (A) (A) (A) (A) (A) (A) (A) (A) (A) (A) (A) (A)
                 (A) (A) (A) (A) (A) (A) (A) (A) (A) (A) (A) (A)
                 (A) (A) (A) (A) (A) (A) (A) (A) (A) (A) (A) (A)
                 (A) (A) (A) (A) (A) (A) (A) (A) (A) (A) (A) (A)
       Virtual   (A) (A) (A) (A) (A) (A) (A) (A) (A) (A) (A) (A)
                 (A) (A) (A) (A) (A) (A) (A) (A) (A) (A) (A) (A)
                 (A) (A) (A) (A) (A) (A) (A) (A) (A) (A) (A) (A)
                 (A) (A) (A) (A) (A) (A) (A) (A) (A) (A) (A) (A)
                 (A) (A) (A) (A) (A) (A) (A) (A) (A) (A) (A) (A)
                 (A) (A) (A) (A) (A) (A) (A) (A) (A) (A) (A) (A)
                 (A) (A) (A) (A) (A) (A) (A) (A) (A) (A) (A) (A)
                 (A) (A) (A) (A) (A) (A) (A) (A) (A) (A) (A) (A)
                 (A) (A) (A) (A) (A) (A) (A) (A) (A) (A) (A) (A)
                 (A) (A) (A) (A) (A) (A) (A) (A) (A) (A) (A) (A)
                 (A) (A) (A) (A) (A) (A) (A) (A) (A) (A) (A) (A)
                 (A) (A) (A) (A) (A) (A) (A) (A) (A) (A) (A) (A)
                 (A) (A) (A) (A) (A) (A) (A) (A) (A) (A) (A) (A)
                 (A) (A) (A) (A) (A) (A) (A) (A) (A) (A) (A) (A)
                 (A) (A) (A) (A) (A) (A) (A) (A) (A) (A) (A) (A)
                 (A) (A) (A) (A) (A) (A) (A) (A) (A) (A) (A) (A)
                 (A) (A) (A) (A) (A) (A) (A) (A) (A) (A) (A) (A)
                 (A) (A) (A) (A) (A) (A) (A) (A) (A) (A) (A) (A)
                 (A) (A) (A) (A) (A) (A) (A) (A) (A) (A) (A) (A)
                 (A) (A) (A) (A) (A) (A) (A) (A) (A) (A) (A) (A)
                 (A) (A) (A) (A) (A) (A) (A) (A) (A) (A) (A) (A)
                 (A) (A) (A) (A) (A) (A) (A) (A) (A) (A) (A) (A)
                 (A) (A) (A) (A) (A) (A) (A) (A) (A) (A) (A) (A)
                 (A) (A) (A) (A) (A) (A) (A) (A) (A) (A) (A) (A)
                 (A) (A) (A) (A) (A) (A) (A) (A) (A) (A) (A) (A)
                 (A) (A) (A) (A) (A) (A) (A) (A) (A) (A) (A) (A)
                 (A) (A) (A) (A) (A) (A) (A) (A) (A) (A) (A) (A)
                 (A) (A) (A) (A) (A) (A) (A) (A) (A) (A) (A) (A)
                 (A) (A) (A) (A) (A) (A) (A) (A) (A) (A) (A) (A)
                 (A) (A) (A) (A) (A) (A) (A) (A) (A) (A) (A) (A)
                 (A) (A) (A) (A) (A) (A) (A) (A) (A) (A) (A) (A)
                 (A) (A) (A) (A) (A) (A) (A) (A) (A) (A) (A)
 The electronic state is 1-A.
 Alpha  occ. eigenvalues --  -10.55139 -10.54231 -10.53311 -10.52324 -10.51934
 Alpha  occ. eigenvalues --  -10.51689 -10.51433 -10.51346 -10.51234 -10.51108
 Alpha  occ. eigenvalues --  -10.50890 -10.50331  -0.94677  -0.91543  -0.88629
 Alpha  occ. eigenvalues --   -0.79265  -0.78252  -0.77801  -0.77099  -0.76754
 Alpha  occ. eigenvalues --   -0.76485  -0.65596  -0.61140  -0.58473  -0.53386
 Alpha  occ. eigenvalues --   -0.53160  -0.52591  -0.51214  -0.50324  -0.49957
 Alpha  occ. eigenvalues --   -0.48579  -0.46630  -0.46399  -0.46217  -0.45971
 Alpha  occ. eigenvalues --   -0.45013  -0.43983  -0.42707  -0.42328  -0.42094
 Alpha  occ. eigenvalues --   -0.40858  -0.40760  -0.38938  -0.37891  -0.37099
 Alpha  occ. eigenvalues --   -0.36510  -0.36063  -0.28316
 Alpha virt. eigenvalues --   -0.03155  -0.01874  -0.01501  -0.01353  -0.00033
 Alpha virt. eigenvalues --    0.00006   0.00369   0.00659   0.00767   0.02026
 Alpha virt. eigenvalues --    0.02370   0.02571   0.03072   0.03160   0.03624
 Alpha virt. eigenvalues --    0.03693   0.04525   0.05420   0.05542   0.05736
 Alpha virt. eigenvalues --    0.06395   0.06697   0.07130   0.07542   0.08108
 Alpha virt. eigenvalues --    0.08419   0.08802   0.09518   0.09762   0.10832
 Alpha virt. eigenvalues --    0.10970   0.11215   0.11652   0.12119   0.12397
 Alpha virt. eigenvalues --    0.12490   0.12588   0.12968   0.13131   0.13441
 Alpha virt. eigenvalues --    0.13777   0.14270   0.14357   0.14604   0.14965
 Alpha virt. eigenvalues --    0.15109   0.15504   0.15671   0.15812   0.16154
 Alpha virt. eigenvalues --    0.16528   0.17021   0.17272   0.17609   0.17821
 Alpha virt. eigenvalues --    0.18120   0.18360   0.18524   0.18612   0.18736
 Alpha virt. eigenvalues --    0.19905   0.20029   0.20391   0.20544   0.21399
 Alpha virt. eigenvalues --    0.21833   0.22187   0.22565   0.23167   0.23392
 Alpha virt. eigenvalues --    0.24108   0.24388   0.24982   0.25128   0.25723
 Alpha virt. eigenvalues --    0.26203   0.26728   0.27136   0.28164   0.28752
 Alpha virt. eigenvalues --    0.28992   0.29390   0.29912   0.30432   0.30730
 Alpha virt. eigenvalues --    0.31645   0.32153   0.32524   0.32867   0.33314
 Alpha virt. eigenvalues --    0.33963   0.34075   0.34695   0.35303   0.35626
 Alpha virt. eigenvalues --    0.36150   0.36262   0.37343   0.37830   0.38211
 Alpha virt. eigenvalues --    0.38812   0.39704   0.41057   0.42544   0.45603
 Alpha virt. eigenvalues --    0.45953   0.46771   0.47920   0.48896   0.49411
 Alpha virt. eigenvalues --    0.50665   0.51602   0.52259   0.52843   0.53409
 Alpha virt. eigenvalues --    0.53659   0.56467   0.57165   0.58149   0.58639
 Alpha virt. eigenvalues --    0.58837   0.60608   0.61685   0.62848   0.63160
 Alpha virt. eigenvalues --    0.64422   0.64478   0.65315   0.66624   0.67257
 Alpha virt. eigenvalues --    0.68113   0.68200   0.68796   0.69507   0.70114
 Alpha virt. eigenvalues --    0.70629   0.71272   0.71429   0.72105   0.72309
 Alpha virt. eigenvalues --    0.72547   0.74135   0.74273   0.74417   0.74957
 Alpha virt. eigenvalues --    0.75430   0.76076   0.76694   0.77831   0.78426
 Alpha virt. eigenvalues --    0.78685   0.79718   0.80220   0.80603   0.81537
 Alpha virt. eigenvalues --    0.81764   0.82443   0.82626   0.84117   0.84588
 Alpha virt. eigenvalues --    0.85022   0.85121   0.86650   0.88027   0.90136
 Alpha virt. eigenvalues --    0.91233   0.93052   0.95783   0.98224   0.98576
 Alpha virt. eigenvalues --    1.01853   1.03083   1.04513   1.08459   1.09136
 Alpha virt. eigenvalues --    1.10380   1.12636   1.14207   1.15019   1.15800
 Alpha virt. eigenvalues --    1.18069   1.19245   1.22520   1.23894   1.25517
 Alpha virt. eigenvalues --    1.30145   1.31632   1.34508   1.36687   1.37538
 Alpha virt. eigenvalues --    1.41254   1.43044   1.45976   1.46907   1.47735
 Alpha virt. eigenvalues --    1.48404   1.49658   1.49954   1.50098   1.51035
 Alpha virt. eigenvalues --    1.52026   1.53106   1.54574   1.55026   1.55984
 Alpha virt. eigenvalues --    1.56553   1.56887   1.58051   1.59142   1.59874
 Alpha virt. eigenvalues --    1.61119   1.61722   1.61959   1.63593   1.63950
 Alpha virt. eigenvalues --    1.64340   1.65356   1.66062   1.66735   1.68024
 Alpha virt. eigenvalues --    1.68893   1.70083   1.70313   1.70853   1.72009
 Alpha virt. eigenvalues --    1.72281   1.73606   1.75007   1.76129   1.76473
 Alpha virt. eigenvalues --    1.78004   1.79062   1.80225   1.80860   1.81840
 Alpha virt. eigenvalues --    1.82550   1.83270   1.84134   1.84204   1.85049
 Alpha virt. eigenvalues --    1.85482   1.86354   1.87924   1.89108   1.89583
 Alpha virt. eigenvalues --    1.92048   1.94120   1.95352   1.96238   1.99452
 Alpha virt. eigenvalues --    2.00980   2.02299   2.04007   2.04807   2.06800
 Alpha virt. eigenvalues --    2.08218   2.10074   2.11510   2.12248   2.14384
 Alpha virt. eigenvalues --    2.15721   2.16024   2.17445   2.18141   2.19373
 Alpha virt. eigenvalues --    2.22273   2.23051   2.23571   2.25771   2.26471
 Alpha virt. eigenvalues --    2.26891   2.29054   2.30158   2.34453   2.36716
 Alpha virt. eigenvalues --    2.38086   2.42151   2.44375   2.45184   2.46555
 Alpha virt. eigenvalues --    2.48084   2.48483   2.49984   2.50792   2.51729
 Alpha virt. eigenvalues --    2.52651   2.53585   2.54441   2.55972   2.56394
 Alpha virt. eigenvalues --    2.57143   2.57645   2.58082   2.59055   2.59365
 Alpha virt. eigenvalues --    2.59685   2.60503   2.60799   2.61711   2.62178
 Alpha virt. eigenvalues --    2.62903   2.63595   2.64215   2.64399   2.65373
 Alpha virt. eigenvalues --    2.65741   2.67728   2.67765   2.69788   2.70928
 Alpha virt. eigenvalues --    2.71865   2.72814   2.73201   2.75290   2.75742
 Alpha virt. eigenvalues --    2.78223   2.78764   2.79374   2.81445   2.83426
 Alpha virt. eigenvalues --    2.83592   2.86828   2.87612   2.90019   2.90345
 Alpha virt. eigenvalues --    2.93390   2.95646   2.97827   2.98216   3.02353
 Alpha virt. eigenvalues --    3.04148   3.06767   3.07500   3.08515   3.09669
 Alpha virt. eigenvalues --    3.11819   3.16903   3.21874   3.24168   3.25424
 Alpha virt. eigenvalues --    3.31354   3.35141   3.37958   3.40827   3.45554
 Alpha virt. eigenvalues --    3.70570   3.73680   3.77742   3.78018   3.80794
 Alpha virt. eigenvalues --    3.81860   3.83170   3.83468   3.83744   3.85021
 Alpha virt. eigenvalues --    3.85333   3.86817   3.87445   3.88425   3.89286
 Alpha virt. eigenvalues --    3.89927   3.90709   3.91532   4.17247   4.24537
 Alpha virt. eigenvalues --    4.34931   4.36492   4.37483   4.38463   4.46466
 Alpha virt. eigenvalues --    4.56278  23.79332  23.84502  23.92388  23.98001
 Alpha virt. eigenvalues --   24.01688  24.03744  24.05381  24.06355  24.06781
 Alpha virt. eigenvalues --   24.06833  24.09001  24.30414
          Condensed to atoms (all electrons):
               1          2          3          4          5          6
     1  C    8.035306  -0.616884  -1.951586  -0.137550  -0.259032  -0.180192
     2  C   -0.616884  11.008024  -1.692279   0.334324  -0.438987  -0.096933
     3  C   -1.951586  -1.692279  11.617770  -0.444508   0.508051   0.154879
     4  C   -0.137550   0.334324  -0.444508   7.049861  -0.371285  -0.474168
     5  C   -0.259032  -0.438987   0.508051  -0.371285   6.260902  -0.177310
     6  C   -0.180192  -0.096933   0.154879  -0.474168  -0.177310   6.619463
     7  C   -0.347314   0.220127  -0.617700   0.135421  -0.053893   0.001975
     8  C   -0.082800   0.007963   0.263252  -0.106838   0.023284  -0.114337
     9  C    0.706432  -0.949822  -1.375787  -0.110979  -0.055024   0.020074
    10  C    0.265788  -2.282761   0.127104  -0.130539   0.041658   0.003703
    11  C   -0.063481   0.402118  -0.142828   0.080273  -0.007069   0.004631
    12  C    0.019738  -0.683336  -0.167778   0.018182  -0.003168  -0.025333
    13  H   -0.082432   0.168798   0.360842  -0.043939   0.008353   0.028588
    14  H   -0.008954   0.068244   0.317036   0.051232  -0.024543  -0.051533
    15  H   -0.001957   0.087298  -0.006791   0.333837   0.021619  -0.006514
    16  H   -0.046011   0.024645   0.012453   0.454477  -0.054904  -0.034409
    17  H   -0.057945  -0.019122   0.053076   0.358141   0.033423   0.012584
    18  H   -0.088014   0.014134   0.113598  -0.062460   0.434611  -0.046688
    19  H    0.110994  -0.026416  -0.086644   0.062763   0.351127  -0.053624
    20  H    0.071728  -0.015133  -0.045867  -0.067470   0.358763   0.059609
    21  H    0.031680   0.045019  -0.050145  -0.038220   0.031477   0.343659
    22  H    0.006664   0.000768  -0.003792  -0.015912  -0.061538   0.412758
    23  H   -0.030749  -0.026593   0.002701   0.000906   0.025185   0.367385
    24  H   -0.004369   0.069673  -0.104171  -0.003315  -0.001547   0.003598
    25  H   -0.006620   0.030151   0.171081  -0.002072   0.003475   0.002364
    26  H   -0.008623   0.057379  -0.073503  -0.004165  -0.000205  -0.003910
    27  H   -0.038218   0.172404  -0.103045   0.078935  -0.021718  -0.010636
    28  H   -0.037423  -0.156152   0.107838  -0.014128   0.012113   0.016755
    29  H    0.037192  -0.050875   0.028821  -0.002680  -0.000375  -0.003250
    30  H   -0.045104  -0.023847   0.094981   0.020793   0.001418  -0.004775
    31  H    0.001967  -0.021005  -0.001856  -0.002203   0.000114   0.000573
    32  H   -0.010364   0.011996  -0.022403   0.016667  -0.001538   0.000635
    33  H    0.002012  -0.003328   0.010269  -0.002659   0.000350  -0.001248
    34  H    0.011794  -0.101170  -0.014127  -0.010861   0.000422   0.004866
    35  H    0.000323   0.169867   0.012319  -0.001246  -0.000299  -0.003737
    36  H   -0.000553  -0.004989   0.002024   0.000895   0.000125   0.000042
               7          8          9         10         11         12
     1  C   -0.347314  -0.082800   0.706432   0.265788  -0.063481   0.019738
     2  C    0.220127   0.007963  -0.949822  -2.282761   0.402118  -0.683336
     3  C   -0.617700   0.263252  -1.375787   0.127104  -0.142828  -0.167778
     4  C    0.135421  -0.106838  -0.110979  -0.130539   0.080273   0.018182
     5  C   -0.053893   0.023284  -0.055024   0.041658  -0.007069  -0.003168
     6  C    0.001975  -0.114337   0.020074   0.003703   0.004631  -0.025333
     7  C    6.719590  -0.425949   0.019154  -0.055092   0.056874   0.066084
     8  C   -0.425949   7.286477  -0.878894  -0.122584   0.117134  -0.433032
     9  C    0.019154  -0.878894   8.557945   0.239803   0.576257  -0.450749
    10  C   -0.055092  -0.122584   0.239803   8.951181  -1.861018   0.379685
    11  C    0.056874   0.117134   0.576257  -1.861018   7.949520  -1.113165
    12  C    0.066084  -0.433032  -0.450749   0.379685  -1.113165   8.089130
    13  H   -0.001770   0.054988  -0.123807  -0.037628   0.013616  -0.010244
    14  H    0.001433  -0.043507  -0.010932  -0.020135   0.001651  -0.000466
    15  H    0.002748   0.041410  -0.100140  -0.071595  -0.026100   0.041634
    16  H    0.003164  -0.010369   0.020365  -0.002583   0.007411   0.000991
    17  H   -0.003680   0.005633  -0.025911  -0.004516   0.009254  -0.011729
    18  H    0.000603   0.004739  -0.012079  -0.003243  -0.000233  -0.000195
    19  H   -0.003107   0.002239   0.008007   0.002498  -0.000218  -0.000011
    20  H   -0.003449   0.000311   0.004368   0.001783   0.000907  -0.000747
    21  H   -0.005699  -0.103038   0.074637   0.004472  -0.014523   0.012224
    22  H   -0.000676   0.005329   0.013880   0.006966  -0.000134   0.001419
    23  H   -0.003051   0.017772   0.005059   0.003803   0.001160   0.001601
    24  H    0.359228  -0.056662   0.086880   0.012126  -0.001504   0.009377
    25  H    0.353726  -0.015964  -0.138672   0.006927  -0.002294  -0.039726
    26  H    0.403011   0.062462  -0.033548  -0.023618   0.004982  -0.017796
    27  H    0.065427   0.225702  -0.009243  -0.052319   0.008359   0.033985
    28  H   -0.041564   0.510025  -0.031305   0.033820   0.006435  -0.019123
    29  H   -0.055598   0.356942   0.049098  -0.011059  -0.022442   0.044340
    30  H   -0.019288  -0.016933   0.328124  -0.030414  -0.125192   0.073694
    31  H    0.001086  -0.002671  -0.084270   0.084480   0.347196   0.035893
    32  H    0.014241  -0.005065   0.143399  -0.244543   0.455694  -0.004980
    33  H   -0.006914   0.001968  -0.020945  -0.032839   0.417349  -0.016662
    34  H   -0.001517   0.041625  -0.006299   0.008698   0.085419   0.334856
    35  H   -0.044623  -0.061108  -0.007442  -0.051649  -0.045701   0.374683
    36  H    0.002872   0.005928  -0.015497  -0.045636  -0.034606   0.448832
              13         14         15         16         17         18
     1  C   -0.082432  -0.008954  -0.001957  -0.046011  -0.057945  -0.088014
     2  C    0.168798   0.068244   0.087298   0.024645  -0.019122   0.014134
     3  C    0.360842   0.317036  -0.006791   0.012453   0.053076   0.113598
     4  C   -0.043939   0.051232   0.333837   0.454477   0.358141  -0.062460
     5  C    0.008353  -0.024543   0.021619  -0.054904   0.033423   0.434611
     6  C    0.028588  -0.051533  -0.006514  -0.034409   0.012584  -0.046688
     7  C   -0.001770   0.001433   0.002748   0.003164  -0.003680   0.000603
     8  C    0.054988  -0.043507   0.041410  -0.010369   0.005633   0.004739
     9  C   -0.123807  -0.010932  -0.100140   0.020365  -0.025911  -0.012079
    10  C   -0.037628  -0.020135  -0.071595  -0.002583  -0.004516  -0.003243
    11  C    0.013616   0.001651  -0.026100   0.007411   0.009254  -0.000233
    12  C   -0.010244  -0.000466   0.041634   0.000991  -0.011729  -0.000195
    13  H    0.484340  -0.039264   0.003421  -0.001067  -0.012826  -0.001258
    14  H   -0.039264   0.522131  -0.002307  -0.000704   0.004430   0.002501
    15  H    0.003421  -0.002307   0.605866  -0.065204  -0.042240   0.006682
    16  H   -0.001067  -0.000704  -0.065204   0.489166  -0.023419  -0.009830
    17  H   -0.012826   0.004430  -0.042240  -0.023419   0.509570   0.002875
    18  H   -0.001258   0.002501   0.006682  -0.009830   0.002875   0.500308
    19  H    0.002557  -0.004870  -0.005398   0.005837  -0.001218  -0.032396
    20  H    0.000161   0.001651  -0.002249   0.000511   0.003152  -0.037167
    21  H   -0.000583  -0.001640  -0.012352   0.004653   0.005030   0.005831
    22  H   -0.002481  -0.001679   0.001914   0.002836  -0.000550  -0.005822
    23  H    0.003547  -0.005247   0.004917  -0.002656  -0.005868   0.000525
    24  H    0.004480  -0.008531   0.000899  -0.000014  -0.001743  -0.000064
    25  H   -0.002342   0.001598  -0.000643  -0.000217   0.000296   0.000019
    26  H    0.003944   0.003626  -0.000091  -0.000177   0.003483   0.000192
    27  H   -0.008480   0.013910   0.002603   0.001560   0.000377  -0.000590
    28  H    0.008122  -0.020593  -0.004551   0.000266   0.001139  -0.000075
    29  H   -0.003152  -0.000972   0.000599  -0.000070  -0.000558  -0.000063
    30  H   -0.015691   0.004350   0.004388   0.001151  -0.009006   0.000297
    31  H    0.000347  -0.000187  -0.002373   0.000077   0.000125  -0.000014
    32  H    0.001645   0.000067  -0.003817   0.001073  -0.001392  -0.000150
    33  H   -0.000755   0.000305   0.001643  -0.000741   0.001105   0.000041
    34  H    0.000472  -0.000294   0.001342  -0.000861   0.000219  -0.000049
    35  H    0.000325  -0.000674  -0.001190   0.000357  -0.000102  -0.000002
    36  H   -0.000125   0.000086  -0.001363   0.000014   0.000072   0.000006
              19         20         21         22         23         24
     1  C    0.110994   0.071728   0.031680   0.006664  -0.030749  -0.004369
     2  C   -0.026416  -0.015133   0.045019   0.000768  -0.026593   0.069673
     3  C   -0.086644  -0.045867  -0.050145  -0.003792   0.002701  -0.104171
     4  C    0.062763  -0.067470  -0.038220  -0.015912   0.000906  -0.003315
     5  C    0.351127   0.358763   0.031477  -0.061538   0.025185  -0.001547
     6  C   -0.053624   0.059609   0.343659   0.412758   0.367385   0.003598
     7  C   -0.003107  -0.003449  -0.005699  -0.000676  -0.003051   0.359228
     8  C    0.002239   0.000311  -0.103038   0.005329   0.017772  -0.056662
     9  C    0.008007   0.004368   0.074637   0.013880   0.005059   0.086880
    10  C    0.002498   0.001783   0.004472   0.006966   0.003803   0.012126
    11  C   -0.000218   0.000907  -0.014523  -0.000134   0.001160  -0.001504
    12  C   -0.000011  -0.000747   0.012224   0.001419   0.001601   0.009377
    13  H    0.002557   0.000161  -0.000583  -0.002481   0.003547   0.004480
    14  H   -0.004870   0.001651  -0.001640  -0.001679  -0.005247  -0.008531
    15  H   -0.005398  -0.002249  -0.012352   0.001914   0.004917   0.000899
    16  H    0.005837   0.000511   0.004653   0.002836  -0.002656  -0.000014
    17  H   -0.001218   0.003152   0.005030  -0.000550  -0.005868  -0.001743
    18  H   -0.032396  -0.037167   0.005831  -0.005822   0.000525  -0.000064
    19  H    0.506160  -0.046897  -0.002937   0.000731   0.006008   0.000795
    20  H   -0.046897   0.519057  -0.004229   0.003515  -0.001350  -0.000496
    21  H   -0.002937  -0.004229   0.597998  -0.055158  -0.044423   0.001504
    22  H    0.000731   0.003515  -0.055158   0.480142  -0.016868   0.000065
    23  H    0.006008  -0.001350  -0.044423  -0.016868   0.496472   0.001134
    24  H    0.000795  -0.000496   0.001504   0.000065   0.001134   0.507070
    25  H   -0.000076   0.000147  -0.000207  -0.000216   0.000077  -0.031702
    26  H   -0.000612   0.000529  -0.000055  -0.000246  -0.000522  -0.049789
    27  H    0.000242  -0.000598  -0.029996   0.004995  -0.002729  -0.006174
    28  H    0.001203   0.000422   0.000441  -0.002120   0.004326  -0.001632
    29  H    0.000607  -0.000252   0.004039   0.001191  -0.001102   0.004558
    30  H   -0.001218   0.002772   0.000046  -0.000160   0.000056   0.003046
    31  H    0.000004   0.000011   0.000206   0.000019  -0.000035  -0.000062
    32  H    0.000030  -0.000100   0.000054   0.000170   0.000086  -0.000045
    33  H    0.000011   0.000012  -0.000615  -0.000104   0.000069   0.000008
    34  H   -0.000077   0.000173  -0.006234   0.000491   0.001165  -0.000674
    35  H    0.000041  -0.000060   0.002889  -0.000116  -0.000771   0.000595
    36  H    0.000012  -0.000027   0.000642   0.000000  -0.000047   0.000064
              25         26         27         28         29         30
     1  C   -0.006620  -0.008623  -0.038218  -0.037423   0.037192  -0.045104
     2  C    0.030151   0.057379   0.172404  -0.156152  -0.050875  -0.023847
     3  C    0.171081  -0.073503  -0.103045   0.107838   0.028821   0.094981
     4  C   -0.002072  -0.004165   0.078935  -0.014128  -0.002680   0.020793
     5  C    0.003475  -0.000205  -0.021718   0.012113  -0.000375   0.001418
     6  C    0.002364  -0.003910  -0.010636   0.016755  -0.003250  -0.004775
     7  C    0.353726   0.403011   0.065427  -0.041564  -0.055598  -0.019288
     8  C   -0.015964   0.062462   0.225702   0.510025   0.356942  -0.016933
     9  C   -0.138672  -0.033548  -0.009243  -0.031305   0.049098   0.328124
    10  C    0.006927  -0.023618  -0.052319   0.033820  -0.011059  -0.030414
    11  C   -0.002294   0.004982   0.008359   0.006435  -0.022442  -0.125192
    12  C   -0.039726  -0.017796   0.033985  -0.019123   0.044340   0.073694
    13  H   -0.002342   0.003944  -0.008480   0.008122  -0.003152  -0.015691
    14  H    0.001598   0.003626   0.013910  -0.020593  -0.000972   0.004350
    15  H   -0.000643  -0.000091   0.002603  -0.004551   0.000599   0.004388
    16  H   -0.000217  -0.000177   0.001560   0.000266  -0.000070   0.001151
    17  H    0.000296   0.003483   0.000377   0.001139  -0.000558  -0.009006
    18  H    0.000019   0.000192  -0.000590  -0.000075  -0.000063   0.000297
    19  H   -0.000076  -0.000612   0.000242   0.001203   0.000607  -0.001218
    20  H    0.000147   0.000529  -0.000598   0.000422  -0.000252   0.002772
    21  H   -0.000207  -0.000055  -0.029996   0.000441   0.004039   0.000046
    22  H   -0.000216  -0.000246   0.004995  -0.002120   0.001191  -0.000160
    23  H    0.000077  -0.000522  -0.002729   0.004326  -0.001102   0.000056
    24  H   -0.031702  -0.049789  -0.006174  -0.001632   0.004558   0.003046
    25  H    0.500637  -0.031470   0.002443   0.000199  -0.002186   0.004495
    26  H   -0.031470   0.500123  -0.003097   0.002282  -0.001694  -0.005591
    27  H    0.002443  -0.003097   0.668097  -0.066854  -0.049680   0.001237
    28  H    0.000199   0.002282  -0.066854   0.496468  -0.026975  -0.004139
    29  H   -0.002186  -0.001694  -0.049680  -0.026975   0.499704   0.001192
    30  H    0.004495  -0.005591   0.001237  -0.004139   0.001192   0.540502
    31  H    0.000627  -0.000641  -0.001891   0.000225   0.000319   0.003792
    32  H   -0.000543  -0.000456   0.000885  -0.000078  -0.000024  -0.019662
    33  H   -0.000162   0.000442   0.002875  -0.000284  -0.000548   0.001089
    34  H   -0.001092   0.000711  -0.011763   0.002482   0.002486  -0.003467
    35  H   -0.009682   0.001137  -0.000648   0.000473  -0.008033   0.003709
    36  H    0.001708  -0.000483   0.000802   0.000158   0.001785  -0.001291
              31         32         33         34         35         36
     1  C    0.001967  -0.010364   0.002012   0.011794   0.000323  -0.000553
     2  C   -0.021005   0.011996  -0.003328  -0.101170   0.169867  -0.004989
     3  C   -0.001856  -0.022403   0.010269  -0.014127   0.012319   0.002024
     4  C   -0.002203   0.016667  -0.002659  -0.010861  -0.001246   0.000895
     5  C    0.000114  -0.001538   0.000350   0.000422  -0.000299   0.000125
     6  C    0.000573   0.000635  -0.001248   0.004866  -0.003737   0.000042
     7  C    0.001086   0.014241  -0.006914  -0.001517  -0.044623   0.002872
     8  C   -0.002671  -0.005065   0.001968   0.041625  -0.061108   0.005928
     9  C   -0.084270   0.143399  -0.020945  -0.006299  -0.007442  -0.015497
    10  C    0.084480  -0.244543  -0.032839   0.008698  -0.051649  -0.045636
    11  C    0.347196   0.455694   0.417349   0.085419  -0.045701  -0.034606
    12  C    0.035893  -0.004980  -0.016662   0.334856   0.374683   0.448832
    13  H    0.000347   0.001645  -0.000755   0.000472   0.000325  -0.000125
    14  H   -0.000187   0.000067   0.000305  -0.000294  -0.000674   0.000086
    15  H   -0.002373  -0.003817   0.001643   0.001342  -0.001190  -0.001363
    16  H    0.000077   0.001073  -0.000741  -0.000861   0.000357   0.000014
    17  H    0.000125  -0.001392   0.001105   0.000219  -0.000102   0.000072
    18  H   -0.000014  -0.000150   0.000041  -0.000049  -0.000002   0.000006
    19  H    0.000004   0.000030   0.000011  -0.000077   0.000041   0.000012
    20  H    0.000011  -0.000100   0.000012   0.000173  -0.000060  -0.000027
    21  H    0.000206   0.000054  -0.000615  -0.006234   0.002889   0.000642
    22  H    0.000019   0.000170  -0.000104   0.000491  -0.000116   0.000000
    23  H   -0.000035   0.000086   0.000069   0.001165  -0.000771  -0.000047
    24  H   -0.000062  -0.000045   0.000008  -0.000674   0.000595   0.000064
    25  H    0.000627  -0.000543  -0.000162  -0.001092  -0.009682   0.001708
    26  H   -0.000641  -0.000456   0.000442   0.000711   0.001137  -0.000483
    27  H   -0.001891   0.000885   0.002875  -0.011763  -0.000648   0.000802
    28  H    0.000225  -0.000078  -0.000284   0.002482   0.000473   0.000158
    29  H    0.000319  -0.000024  -0.000548   0.002486  -0.008033   0.001785
    30  H    0.003792  -0.019662   0.001089  -0.003467   0.003709  -0.001291
    31  H    0.502264  -0.027235  -0.049291   0.006627  -0.000735  -0.005603
    32  H   -0.027235   0.514357  -0.034261  -0.002502  -0.004807   0.006954
    33  H   -0.049291  -0.034261   0.522410  -0.004556   0.003303  -0.004541
    34  H    0.006627  -0.002502  -0.004556   0.501619  -0.048597  -0.020221
    35  H   -0.000735  -0.004807   0.003303  -0.048597   0.563722  -0.040337
    36  H   -0.005603   0.006954  -0.004541  -0.020221  -0.040337   0.463831
 Mulliken charges:
               1
     1  C    0.804555
     2  C    0.316699
     3  C   -1.053284
     4  C   -0.949510
     5  C   -0.584032
     6  C   -0.769543
     7  C   -0.735876
     8  C   -0.555432
     9  C   -0.412139
    10  C    0.909277
    11  C   -1.085734
    12  C   -0.988107
    13  H    0.239300
    14  H    0.252780
    15  H    0.194055
    16  H    0.222229
    17  H    0.217839
    18  H    0.213430
    19  H    0.203853
    20  H    0.196509
    21  H    0.203551
    22  H    0.223718
    23  H    0.198055
    24  H    0.207394
    25  H    0.205913
    26  H    0.215990
    27  H    0.132842
    28  H    0.221805
    29  H    0.208715
    30  H    0.234645
    31  H    0.214120
    32  H    0.216012
    33  H    0.215193
    34  H    0.228895
    35  H    0.197817
    36  H    0.238466
 Sum of Mulliken charges =  -0.00000
 Mulliken charges with hydrogens summed into heavy atoms:
               1
     1  C    0.804555
     2  C    0.316699
     3  C   -0.561203
     4  C   -0.315387
     5  C    0.029759
     6  C   -0.144218
     7  C   -0.106580
     8  C    0.007930
     9  C   -0.177494
    10  C    0.909277
    11  C   -0.440409
    12  C   -0.322929
 Electronic spatial extent (au):  <R**2>=           2670.8642
 Charge=              0.0000 electrons
 Dipole moment (field-independent basis, Debye):
    X=              0.2493    Y=              0.0376    Z=              0.1721  Tot=              0.3052
 Quadrupole moment (field-independent basis, Debye-Ang):
   XX=            -80.4494   YY=            -81.5511   ZZ=            -82.0263
   XY=             -0.8124   XZ=              0.6762   YZ=              0.3130
 Traceless Quadrupole moment (field-independent basis, Debye-Ang):
   XX=              0.8928   YY=             -0.2088   ZZ=             -0.6840
   XY=             -0.8124   XZ=              0.6762   YZ=              0.3130
 Octapole moment (field-independent basis, Debye-Ang**2):
  XXX=              9.8434  YYY=              1.7535  ZZZ=             -1.5051  XYY=              1.1910
  XXY=             -3.1799  XXZ=              3.2093  XZZ=             -0.2085  YZZ=             -3.5158
  YYZ=              1.2414  XYZ=              0.2444
 Hexadecapole moment (field-independent basis, Debye-Ang**3):
 XXXX=          -2331.7267 YYYY=           -927.7870 ZZZZ=           -558.6275 XXXY=             -3.6144
 XXXZ=             -9.1906 YYYX=             -5.5018 YYYZ=              1.2784 ZZZX=              7.0794
 ZZZY=              1.2847 XXYY=           -533.1781 XXZZ=           -494.9241 YYZZ=           -248.9803
 XXYZ=             -2.5168 YYXZ=             -2.8206 ZZXY=             -2.0732
 N-N= 7.813228979176D+02 E-N=-2.653055462895D+03  KE= 4.688204921933D+02
 R6APFD:  NTU= -4 IXU= 1 FactS= 1.050
 Calling FoFJK, ICntrl=      2127 FMM=F ISym2X=0 I1Cent= 0 IOpClX= 0 NMat=1 NMatS=1 NMatT=0.
 ***** Axes restored to original set *****
 -------------------------------------------------------------------
 Center     Atomic                   Forces (Hartrees/Bohr)
 Number     Number              X              Y              Z
 -------------------------------------------------------------------
      1        6           0.020400719    0.018723968    0.002892883
      2        6          -0.000046479    0.002706223    0.004275392
      3        6          -0.009417330   -0.003553444   -0.004508250
      4        6          -0.011062154    0.007145816   -0.006764630
      5        6           0.006821839   -0.012210115    0.002848117
      6        6          -0.004998983   -0.001006636    0.000695265
      7        6          -0.004259093    0.000019492    0.002113433
      8        6           0.001880246   -0.003294167   -0.004256917
      9        6           0.013241206    0.013236265    0.005593992
     10        6          -0.016464716   -0.022162109   -0.008544854
     11        6          -0.010700938   -0.000509263    0.010294940
     12        6           0.013693679    0.004519629   -0.000844009
     13        1           0.001521199    0.002752366    0.001154009
     14        1           0.001305502   -0.004302107   -0.001293159
     15        1           0.004277542   -0.003634222    0.002056879
     16        1          -0.003344656    0.000629299   -0.000696867
     17        1           0.001583328   -0.001121175    0.001408905
     18        1           0.002410194    0.001188384   -0.002075577
     19        1          -0.001945178   -0.002233285   -0.000058269
     20        1           0.000616678    0.000132379    0.002096167
     21        1           0.003311127   -0.002236401    0.000869830
     22        1          -0.002078666    0.001484920    0.002076810
     23        1           0.000398825   -0.002480025   -0.001720053
     24        1          -0.002284678   -0.001340057   -0.001280737
     25        1           0.001220782    0.002512358   -0.002358447
     26        1          -0.000393716    0.001691600    0.000492804
     27        1          -0.000838924    0.001366506   -0.000810443
     28        1          -0.003104747    0.001495385    0.001951188
     29        1           0.002191747    0.001373442    0.001622707
     30        1          -0.004478423    0.000857810    0.001552198
     31        1           0.003324479    0.000320884   -0.001305538
     32        1          -0.000698917    0.001043078    0.001136749
     33        1           0.002277863    0.000459926   -0.002448565
     34        1          -0.000530481   -0.003881180   -0.002859965
     35        1          -0.004662222   -0.001965707   -0.002612546
     36        1           0.000833346    0.002270163   -0.000693439
 -------------------------------------------------------------------
 Cartesian Forces:  Max     0.022162109 RMS     0.005601020

 GradGradGradGradGradGradGradGradGradGradGradGradGradGradGradGradGradGrad
 Berny optimization.
 FormGI is forming the generalized inverse of G from B-inverse, IUseBI=4.
 Internal  Forces:  Max     0.023119525 RMS     0.003769961
 Search for a local minimum.
 Step number   1 out of a maximum of  196
 All quantities printed in internal units (Hartrees-Bohrs-Radians)
 Mixed Optimization -- RFO/linear search
 Second derivative matrix not updated -- first step.
 ITU=  0
     Eigenvalues ---    0.00230   0.00230   0.00230   0.00230   0.00232
     Eigenvalues ---    0.00293   0.00313   0.00392   0.00658   0.00770
     Eigenvalues ---    0.01298   0.01364   0.02547   0.02768   0.03961
     Eigenvalues ---    0.04204   0.04526   0.04961   0.05033   0.05104
     Eigenvalues ---    0.05217   0.05228   0.05313   0.05333   0.05386
     Eigenvalues ---    0.05424   0.05437   0.05469   0.05547   0.05561
     Eigenvalues ---    0.06045   0.06848   0.07236   0.07307   0.07375
     Eigenvalues ---    0.09957   0.13297   0.14126   0.14579   0.14632
     Eigenvalues ---    0.15124   0.15956   0.16000   0.16000   0.16000
     Eigenvalues ---    0.16000   0.16000   0.16000   0.16000   0.16000
     Eigenvalues ---    0.16000   0.16000   0.16000   0.16000   0.16000
     Eigenvalues ---    0.16000   0.16000   0.16000   0.16000   0.16000
     Eigenvalues ---    0.16000   0.16000   0.16000   0.22019   0.22026
     Eigenvalues ---    0.24993   0.24997   0.25869   0.26431   0.27754
     Eigenvalues ---    0.27778   0.28486   0.28898   0.29035   0.29582
     Eigenvalues ---    0.31534   0.32409   0.33561   0.33601   0.33906
     Eigenvalues ---    0.34008   0.34021   0.34043   0.34074   0.34085
     Eigenvalues ---    0.34089   0.34156   0.34159   0.34164   0.34217
     Eigenvalues ---    0.34232   0.34242   0.34266   0.34279   0.34280
     Eigenvalues ---    0.34421   0.34522   0.34552   0.34626   0.34680
     Eigenvalues ---    0.34720   0.55308
 RFO step:  Lambda=-1.52174127D-02 EMin= 2.30000000D-03
 Linear search not attempted -- first point.
 Iteration  1 RMS(Cart)=  0.10449606 RMS(Int)=  0.00289967
 Iteration  2 RMS(Cart)=  0.00543872 RMS(Int)=  0.00060436
 Iteration  3 RMS(Cart)=  0.00001050 RMS(Int)=  0.00060433
 Iteration  4 RMS(Cart)=  0.00000001 RMS(Int)=  0.00060433
 Variable       Old X    -DE/DX   Delta X   Delta X   Delta X     New X
                                 (Linear)    (Quad)   (Total)
    R1        2.95703  -0.00741   0.00000  -0.02651  -0.02651   2.93052
    R2        2.92626  -0.00191   0.00000  -0.00651  -0.00651   2.91974
    R3        2.91087  -0.00697   0.00000  -0.02323  -0.02323   2.88764
    R4        2.89930  -0.00134   0.00000  -0.00437  -0.00437   2.89492
    R5        2.97049  -0.00969   0.00000  -0.03536  -0.03536   2.93513
    R6        2.92679  -0.00457   0.00000  -0.01560  -0.01560   2.91119
    R7        2.90216   0.00108   0.00000   0.00354   0.00354   2.90570
    R8        2.88804  -0.00716   0.00000  -0.02301  -0.02301   2.86504
    R9        2.08078   0.00161   0.00000   0.00458   0.00458   2.08535
   R10        2.08009   0.00314   0.00000   0.00893   0.00893   2.08903
   R11        2.06459   0.00201   0.00000   0.00556   0.00556   2.07015
   R12        2.07489   0.00267   0.00000   0.00754   0.00754   2.08243
   R13        2.06966   0.00154   0.00000   0.00430   0.00430   2.07396
   R14        2.07068   0.00048   0.00000   0.00134   0.00134   2.07203
   R15        2.07054   0.00287   0.00000   0.00805   0.00805   2.07859
   R16        2.07063   0.00210   0.00000   0.00589   0.00589   2.07652
   R17        2.06287   0.00190   0.00000   0.00526   0.00526   2.06813
   R18        2.07316   0.00156   0.00000   0.00438   0.00438   2.07754
   R19        2.06862   0.00265   0.00000   0.00740   0.00740   2.07602
   R20        2.07206   0.00251   0.00000   0.00704   0.00704   2.07910
   R21        2.07181   0.00099   0.00000   0.00279   0.00279   2.07460
   R22        2.07258   0.00095   0.00000   0.00267   0.00267   2.07525
   R23        2.06131   0.00151   0.00000   0.00417   0.00417   2.06548
   R24        2.07187   0.00120   0.00000   0.00338   0.00338   2.07525
   R25        2.06941   0.00068   0.00000   0.00191   0.00191   2.07131
   R26        2.54860  -0.01461   0.00000  -0.02571  -0.02571   2.52289
   R27        2.06198   0.00309   0.00000   0.00853   0.00853   2.07051
   R28        2.83402   0.00034   0.00000   0.00100   0.00100   2.83502
   R29        2.85004   0.00879   0.00000   0.02659   0.02659   2.87664
   R30        2.06859   0.00247   0.00000   0.00689   0.00689   2.07548
   R31        2.06924   0.00168   0.00000   0.00468   0.00468   2.07392
   R32        2.06883   0.00244   0.00000   0.00683   0.00683   2.07566
   R33        2.06626   0.00204   0.00000   0.00566   0.00566   2.07192
   R34        2.06408   0.00126   0.00000   0.00350   0.00350   2.06759
   R35        2.07294   0.00150   0.00000   0.00422   0.00422   2.07716
    A1        1.86847   0.00962   0.00000   0.09457   0.09512   1.96360
    A2        1.95497  -0.01005   0.00000  -0.09602  -0.09694   1.85803
    A3        1.98625  -0.00015   0.00000  -0.00739  -0.01200   1.97426
    A4        1.86477   0.00042   0.00000   0.01145   0.01412   1.87888
    A5        1.88064  -0.00362   0.00000   0.01273   0.01182   1.89246
    A6        1.90305   0.00409   0.00000  -0.00770  -0.01009   1.89297
    A7        1.86381  -0.00288   0.00000  -0.02770  -0.02767   1.83614
    A8        1.92692   0.00063   0.00000   0.00386   0.00383   1.93075
    A9        1.91744   0.00084   0.00000   0.00506   0.00498   1.92242
   A10        1.87456   0.00125   0.00000   0.00705   0.00701   1.88158
   A11        1.84836   0.00046   0.00000   0.00226   0.00221   1.85057
   A12        2.02398  -0.00055   0.00000   0.00610   0.00604   2.03002
   A13        2.13502   0.00578   0.00000   0.02289   0.02296   2.15798
   A14        1.87186  -0.00227   0.00000  -0.00742  -0.00738   1.86449
   A15        1.85693   0.00045   0.00000   0.00796   0.00815   1.86507
   A16        1.88583  -0.00166   0.00000  -0.00788  -0.00793   1.87790
   A17        1.87048  -0.00454   0.00000  -0.03054  -0.03058   1.83990
   A18        1.81987   0.00191   0.00000   0.01529   0.01516   1.83503
   A19        1.97178  -0.00217   0.00000  -0.01473  -0.01497   1.95681
   A20        1.92033  -0.00154   0.00000   0.00013   0.00017   1.92050
   A21        1.95487  -0.00071   0.00000  -0.01083  -0.01109   1.94379
   A22        1.83364   0.00368   0.00000   0.03380   0.03385   1.86749
   A23        1.91940  -0.00043   0.00000  -0.01736  -0.01783   1.90156
   A24        1.85644   0.00166   0.00000   0.01364   0.01367   1.87012
   A25        1.95253  -0.00504   0.00000  -0.03128  -0.03131   1.92122
   A26        1.92975   0.00208   0.00000   0.01400   0.01402   1.94377
   A27        1.93866  -0.00017   0.00000  -0.00061  -0.00072   1.93794
   A28        1.88049   0.00142   0.00000   0.00734   0.00744   1.88793
   A29        1.88070   0.00220   0.00000   0.00857   0.00842   1.88912
   A30        1.87887  -0.00028   0.00000   0.00326   0.00321   1.88208
   A31        1.96777  -0.00216   0.00000  -0.01365  -0.01368   1.95410
   A32        1.93174  -0.00349   0.00000  -0.01665  -0.01665   1.91509
   A33        1.94118   0.00219   0.00000   0.01055   0.01057   1.95175
   A34        1.84267   0.00348   0.00000   0.02346   0.02340   1.86607
[...]
 ,0.00000071,0.00000715,-0.00000219,0.00000510,-0.00000844,0.00000676,-
 0.00000598,0.00000402,-0.00000325,0.00000588,0.00000549,-0.00012980,0.
 00002054,0.00000922,0.00002088,0.00000574,0.00002856,0.00004417,-0.000
 02444,-0.00000316,0.00002094,0.00001299,0.00002009,-0.00005057,-0.0000
 6775,0.00002987,-0.00005363,-0.00000863,-0.00006029,0.00004410,0.00010
 511,0.11085397,-0.03181892,0.10407643,-0.00000911,-0.00001073,0.000012
 09,0.00010947,0.00001724,-0.00017235,0.00002549,0.00010262,0.00004673,
 0.00002299,-0.00002653,-0.00004191,0.00000566,0.00000517,0.00001100,0.
 00000961,0.00001014,-0.00000651,0.00003092,0.00002674,0.00005222,0.000
 00940,0.00002747,0.00000387,0.00033604,-0.00113950,-0.00142404,0.00836
 872,-0.00639226,-0.01029180,-0.14110779,0.07436467,0.10536402,-0.00074
 822,-0.00255495,-0.00029910,-0.00001066,0.00000054,0.00001300,0.000041
 46,0.00000920,0.00000307,0.00003325,0.00001114,-0.00001074,0.00003077,
 0.00001060,0.00002648,-0.00000553,0.00003416,0.00006145,0.00000624,-0.
 00000537,0.00000225,0.00000394,0.00000554,-0.00000198,-0.00000524,-0.0
 0000166,-0.00000042,-0.00000260,-0.00000004,-0.00000632,0.00000567,-0.
 00000622,0.00000224,0.00000150,0.00000590,0.00000342,0.00000837,0.0000
 3195,-0.00001501,0.00000277,-0.00000478,-0.00000082,0.00001048,-0.0000
 0218,-0.00001303,-0.00002110,0.00000478,0.00000090,0.00002663,0.000003
 98,0.00000278,0.00001640,-0.00000908,0.00000178,-0.00030432,-0.0004204
 2,0.00013938,-0.01387161,0.01057180,0.01837327,0.15041574,0.00000036,-
 0.00000054,0.00000775,-0.00003146,0.00007293,0.00046832,-0.00002572,0.
 00001227,-0.00004695,0.00001062,-0.00001476,-0.00006585,-0.00000222,-0
 .00000547,-0.00000910,0.00000567,0.00000058,-0.00000999,0.00000232,-0.
 00007263,-0.00007000,0.00011741,0.00010500,-0.00001113,0.00191076,0.00
 067789,-0.00043653,0.01698531,-0.01151474,-0.01657494,0.07182125,-0.10
 395918,-0.08064808,-0.00264532,-0.00287023,-0.00180809,-0.00003283,-0.
 00000228,0.00004746,0.00001973,0.00000930,0.00001638,-0.00002725,-0.00
 001193,0.00000771,0.00000332,0.00000716,0.00002957,-0.00004525,0.00003
 525,0.00000664,0.00000389,-0.00000084,0.00000505,-0.00000009,0.0000014
 1,0.00000158,-0.00000539,0.00000740,0.00000898,-0.00000231,-0.00000279
 ,0.00001099,-0.00000061,0.00000087,0.00000573,0.00000183,0.00000332,0.
 00000010,-0.00000245,-0.00001945,0.00001648,-0.00002656,0.00004992,-0.
 00002510,-0.00003211,-0.00000031,0.00002265,0.00002748,-0.00001544,0.0
 0002215,-0.00003736,0.00001264,0.00006673,0.00001112,0.00009129,0.0000
 4434,-0.00135007,0.00011967,0.00051766,0.00377927,-0.00447570,-0.00519
 676,-0.07743024,0.11236837,0.00000442,-0.00011717,0.00007125,-0.000208
 92,0.00020919,0.00014669,0.00000723,-0.00006040,-0.00001345,-0.0000007
 1,0.00009547,-0.00015075,-0.00000089,0.00004604,-0.00000748,0.00001364
 ,0.00005475,-0.00003596,0.00003860,0.00001216,0.00000004,0.00001174,0.
 00001129,-0.00002048,0.00111869,0.00157379,0.00016715,0.00762170,-0.00
 453697,-0.00938669,0.10344865,-0.08196715,-0.16238742,-0.00119581,-0.0
 0300643,0.00128903,-0.00001371,-0.00001145,0.00001438,-0.00001801,0.00
 002339,0.00000289,-0.00001351,-0.00006716,-0.00005608,-0.00000458,0.00
 001831,0.00001567,-0.00012737,-0.00000669,0.00009900,-0.00001529,0.000
 00220,-0.00000119,0.00002113,0.00001201,-0.00000608,-0.00000345,-0.000
 00962,0.00001154,0.00000049,-0.00001535,0.00001185,-0.00001464,0.00000
 179,-0.00000244,0.00001827,0.00002154,0.00001580,-0.00001737,-0.000004
 53,-0.00001067,-0.00003436,0.00004785,-0.00002300,-0.00001092,0.000006
 39,0.00000465,0.00002674,-0.00000485,0.00000410,-0.00003785,-0.0000097
 0,0.00001938,0.00001091,0.00007741,0.00004312,-0.00049681,-0.00005157,
 0.00080525,-0.00896153,0.00742302,0.01080985,-0.11395454,0.09180788,0.
 17300300,0.00003505,-0.00014450,0.00002996,-0.00093611,0.00082810,-0.0
 0103372,0.00000400,-0.00025289,-0.00009174,-0.00005282,0.00012766,0.00
 004879,-0.00000028,0.00007024,-0.00001083,-0.00000799,0.00003718,-0.00
 001006,0.00011650,0.00030885,0.00001255,-0.00019730,-0.00024093,0.0000
 5288,-0.00009233,-0.00195705,-0.00103411,-0.00646781,-0.01203734,0.011
 43785,-0.05605575,-0.03685968,0.04608900,0.00022595,0.00091016,-0.0000
 1096,0.00002291,0.00001539,-0.00000638,-0.00010641,0.00001072,0.000019
 05,-0.00001983,-0.00010027,-0.00006544,-0.00001344,0.00000997,-0.00002
 174,-0.00000021,-0.00003122,0.00003105,-0.00002411,0.00001020,-0.00000
 079,0.00002467,0.00000602,-0.00001208,0.00000256,-0.00000917,-0.000000
 61,0.00000788,-0.00001901,0.00000158,-0.00001928,0.00000597,-0.0000086
 5,0.00001777,0.00001504,0.00000654,-0.00001539,0.00002820,-0.00002559,
 0.00002466,0.00001483,-0.00000036,0.00000886,0.00001477,0.00000855,-0.
 00000252,0.00002027,-0.00003213,-0.00000243,-0.00003445,-0.00012251,0.
 00000517,0.00001022,-0.00001163,0.00058588,-0.00088273,0.00066478,0.00
 637428,0.01828707,-0.02065477,-0.00443772,-0.01300920,0.01265087,0.061
 13563,0.00005395,-0.00006829,0.00008041,-0.00101097,0.00113945,-0.0004
 2201,0.00000012,-0.00039991,-0.00027247,-0.00003343,0.00008950,-0.0001
 3230,-0.00001686,0.00003635,-0.00004069,-0.00002038,0.00002105,0.00001
 589,-0.00012489,0.00018141,-0.00019414,-0.00020407,-0.00012854,0.00010
 751,0.00056417,-0.00220596,-0.00235390,-0.00893735,-0.01781476,0.01930
 357,-0.03669063,-0.15084822,0.12060157,-0.00053316,0.00166530,-0.00021
 317,0.00003933,0.00001623,-0.00000264,-0.00018049,-0.00001119,0.000046
 37,-0.00010176,-0.00004603,0.00008579,-0.00008208,0.00002443,0.0000055
 6,0.00002371,-0.00003309,-0.00001286,-0.00002774,0.00002329,-0.0000019
 6,0.00001094,-0.00000831,0.00000020,0.00000940,-0.00000552,-0.00000055
 ,0.00001559,-0.00000868,0.00000426,-0.00002058,0.00001356,-0.00001401,
 0.00000912,-0.00000142,0.00000360,-0.00001527,-0.00010469,0.00001990,0
 .00004989,0.00002378,0.00002062,0.00002776,0.00003605,-0.00000702,-0.0
 0002140,0.00004655,-0.00000312,0.00002941,-0.00007874,-0.00014080,0.00
 003630,-0.00007266,-0.00002925,0.00019376,-0.00050569,0.00053524,-0.00
 184197,-0.00605270,0.00624060,0.00307285,0.01044935,-0.01164060,0.0448
 8570,0.16499752,0.00002848,-0.00001999,0.00000417,-0.00066064,0.000499
 84,-0.00019735,-0.00007384,-0.00015240,-0.00011432,-0.00000207,-0.0000
 3081,0.00003048,-0.00000351,0.00000626,-0.00000794,-0.00000410,-0.0000
 0580,0.00000788,-0.00001760,0.00004831,-0.00006717,0.00006628,0.000033
 22,0.00001144,-0.00074901,-0.00082832,-0.00059371,-0.00234066,-0.00965
 494,0.01182818,0.04499604,0.11833019,-0.18380740,0.00005215,0.00048535
 ,0.00068869,0.00000208,0.00000415,0.00002282,-0.00005029,0.00000872,0.
 00003399,0.00005381,0.00000997,-0.00002810,0.00003177,0.00000535,0.000
 01387,-0.00001336,0.00002112,-0.00000034,0.00000238,0.00000075,0.00000
 499,0.00000281,0.00000236,-0.00000137,-0.00000285,0.00000359,0.0000030
 4,-0.00000246,0.00000392,-0.00000475,0.00000541,-0.00000381,-0.0000014
 9,-0.00000136,0.00000165,-0.00000080,-0.00001360,-0.00000001,0.0000158
 6,-0.00000182,0.00001558,-0.00000826,-0.00000499,0.00000157,0.00001553
 ,-0.00002747,-0.00000685,-0.00001558,0.00002011,0.00000586,-0.00000140
 ,-0.00000307,-0.00002776,-0.00001213,-0.00022136,-0.00011020,0.0002941
 3,0.00386815,0.00887951,-0.01146319,0.00263379,0.01298560,-0.01389212,
 -0.04740172,-0.13137259,0.19706091,0.00006047,0.00000743,0.00002972,0.
 00055887,-0.00047599,0.00107367,-0.00002188,-0.00005802,-0.00012714,-0
 .00016626,0.00012150,0.00001910,-0.00000715,0.00001550,-0.00000861,-0.
 00002053,-0.00000965,0.00005529,-0.00017063,-0.00014547,-0.00024372,-0
 .00035952,-0.00034704,0.00046960,-0.00079153,0.00148485,0.00071383,0.0
 0490397,-0.00637486,0.01876470,-0.00069337,0.00008558,-0.00016448,-0.0
 6443571,0.02015882,-0.06996028,0.00007933,-0.00001436,-0.00007239,-0.0
 0004629,-0.00002038,0.00000106,0.00002637,0.00003713,0.00005091,-0.000
 04867,-0.00000724,-0.00003726,0.00004805,-0.00004922,-0.00009714,-0.00
 000193,0.00000144,0.00000187,0.00000399,-0.00000060,-0.00000230,0.0000
 0370,-0.00000388,-0.00001326,-0.00000431,0.00001448,-0.00004985,0.0000
 2296,-0.00000970,-0.00001938,-0.00000132,-0.00000470,-0.00000799,0.000
 03071,-0.00017100,0.00002307,0.00003082,0.00001440,0.00000672,-0.00004
 537,0.00008520,-0.00009618,-0.00093582,0.00007244,-0.00026081,0.000064
 32,0.00020595,-0.00007334,-0.00024531,-0.00063068,0.00002492,-0.000691
 77,0.00087062,-0.00117665,0.00015688,0.00002958,0.00014258,0.00009515,
 0.00003064,0.00000642,0.00014111,0.00003201,-0.00010757,0.07095259,-0.
 00004512,0.00006145,0.00004208,-0.00019353,0.00042467,-0.00028537,-0.0
 0010674,0.00002340,-0.00017373,0.00007820,-0.00006974,-0.00006881,-0.0
 0000936,-0.00003308,-0.00000598,0.00001078,-0.00002426,0.00003433,0.00
 060802,0.00005964,0.00019365,-0.00018664,0.00055758,0.00001988,-0.0001
 1935,0.00003738,-0.00002830,-0.00601066,0.00432821,-0.01550588,0.00090
 772,-0.00037134,-0.00014581,0.01960646,-0.06005010,0.05974315,0.000050
 17,-0.00002891,-0.00003846,0.00001696,-0.00000894,0.00002174,-0.000033
 15,0.00004866,0.00001012,0.00001915,0.00000272,0.00002556,-0.00001115,
 0.00001397,0.00003036,0.00000900,-0.00000258,0.00000338,-0.00000934,-0
 .00000035,0.00000766,-0.00000042,0.00000101,-0.00000526,-0.00000561,0.
 00003238,-0.00002933,0.00002446,-0.00001345,-0.00001272,-0.00001872,-0
 .00000869,0.00000210,-0.00002682,0.00012298,-0.00002823,-0.00005287,0.
 00010155,-0.00001059,-0.00015153,0.00002340,-0.00007454,-0.00028759,0.
 00016336,0.00007567,0.00028087,-0.00005555,-0.00014134,-0.00000568,-0.
 00107056,0.00040419,0.00036087,-0.00059435,0.00064219,0.00028551,0.000
 16485,0.00022525,0.00014790,-0.00054515,0.00026357,-0.00021092,-0.0004
 3584,0.00026144,-0.02281093,0.06318042,-0.00003561,-0.00000787,-0.0000
 6886,-0.00051932,0.00028756,-0.00119446,-0.00004851,0.00002041,0.00011
 470,0.00010646,-0.00014782,0.00011703,0.00001381,-0.00000915,0.0000245
 5,0.00002453,-0.00000081,-0.00004921,0.00020165,0.00026883,0.00040132,
 -0.00040895,-0.00013325,-0.00004579,-0.00118962,-0.00238423,0.00042664
 ,-0.00227301,0.00435016,-0.02051908,0.00149058,0.00010712,-0.00079038,
 -0.07301138,0.06415736,-0.26573607,-0.00004924,0.00001822,0.00008651,0
 .00008239,0.00003945,0.00000375,0.00013503,-0.00002783,-0.00017425,0.0
 0010731,0.00000536,0.00001878,-0.00007270,0.00006028,0.00009799,0.0000
 1293,-0.00001253,0.00000194,0.00000022,0.00000766,-0.00000343,-0.00001
 039,0.00000593,0.00001514,0.00000617,-0.00001283,0.00003288,-0.0000052
 8,0.00000240,0.00001998,0.00000592,0.00001139,0.00000699,-0.00004180,0
 .00019223,-0.00007468,-0.00002115,-0.00005475,-0.00000989,0.00001766,-
 0.00007847,0.00008805,0.00035233,-0.00021504,0.00010377,-0.00019540,-0
 .00003462,0.00035913,-0.00007309,0.00032856,-0.00012667,0.00075146,-0.
 00080420,0.00088232,-0.00007985,0.00028918,0.00025389,0.00008128,-0.00
 052412,0.00007321,-0.00029857,-0.00034239,-0.00004924,0.07626223,-0.06
 608052,0.28995628,0.00003735,0.00008528,-0.00003284,0.00009487,0.00021
 126,0.00018674,-0.00003682,-0.00007924,-0.00008420,-0.00000900,0.00003
 439,-0.00004782,0.00000805,-0.00004290,0.00002581,0.00000827,-0.000035
 62,0.00004163,-0.00042891,-0.00004194,-0.00005682,-0.00184671,-0.00024
 689,-0.00050918,0.00030578,0.00025657,0.00067664,0.00231654,0.01775518
 ,-0.00342388,-0.00126555,0.00024538,0.00121866,-0.04745342,-0.02094232
 ,0.00338525,0.00009400,-0.00001679,-0.00007806,-0.00000533,-0.00003219
 ,-0.00001584,0.00000522,0.00001772,0.00005515,-0.00003809,-0.00001230,
 0.00000840,0.00002834,-0.00002058,-0.00003067,0.00002137,-0.00001001,-
 0.00000242,-0.00001292,0.00000019,0.00000451,0.00000010,0.00000135,-0.
 00000879,0.00000074,0.00001968,-0.00003793,0.00002909,-0.00001007,-0.0
 0000697,-0.00001582,-0.00000529,-0.00000878,0.00016778,-0.00006477,-0.
 00004696,-0.00018619,-0.00084052,0.00106118,0.00018059,0.00006097,-0.0
 0021217,0.00022127,-0.00003377,0.00000121,0.00003763,0.00002523,-0.000
 20251,-0.00279986,-0.00092090,-0.00149409,0.00042406,-0.00042907,0.000
 19043,0.00012091,-0.00001231,0.00022178,0.00047278,0.00034341,0.000280
 50,-0.00017212,0.00012912,-0.00017914,-0.00013842,0.01018868,-0.000929
 93,0.05066564,-0.00001727,-0.00007534,-0.00000431,0.00039671,-0.000496
 42,0.00009012,0.00009085,0.00018343,0.00006666,-0.00000744,0.00001214,
 0.00001373,0.00000544,0.00003044,-0.00000578,-0.00000730,0.00004163,-0
 .00005536,0.00040040,-0.00011548,0.00034286,-0.00051362,-0.00114365,-0
 .00096784,-0.00117974,0.00040199,-0.00036547,-0.00155588,-0.01259520,0
 .00034415,0.00268997,-0.00051820,-0.00135807,-0.02024385,-0.31193069,0
 .02453934,-0.00006185,0.00000676,0.00006384,0.00009775,0.00002219,-0.0
 0001247,-0.00003251,-0.00000870,-0.00004913,0.00002128,0.00001415,0.00
 000017,-0.00002896,0.00002625,0.00004017,-0.00000945,0.00000222,-0.000
 00249,0.00001335,0.00000637,-0.00000575,-0.00000397,-0.00000040,0.0000
 1351,-0.00000920,-0.00003302,0.00003863,-0.00003001,0.00002214,0.00001
 712,0.00002767,0.00001634,-0.00000084,0.00000970,0.00015371,-0.0000652
 6,-0.00067923,-0.00028166,0.00074277,-0.00015532,-0.00003026,-0.000032
 51,0.00004237,0.00007143,-0.00013725,-0.00063274,0.00032927,0.00013858
 ,-0.00189926,0.00089271,-0.00001546,-0.00017799,0.00030797,-0.00031499
 ,-0.00002289,0.00006000,0.00009805,-0.00032537,-0.00050314,-0.00045389
 ,-0.00000477,0.00037709,0.00026216,-0.00127709,-0.00755282,-0.00000943
 ,0.02493130,0.33816453,-0.00003074,0.00001128,0.00006401,0.00062119,-0
 .00048918,0.00079416,-0.00009677,0.00010281,-0.00019509,-0.00002834,-0
 .00000659,0.00000921,-0.00001271,0.00000549,-0.00002119,0.00000151,0.0
 0000006,0.00002845,0.00048916,-0.00034777,-0.00031860,-0.00018979,0.00
 071122,0.00003283,-0.00102342,0.00063694,0.00070547,-0.00299661,-0.024
 64080,0.00069377,0.00286772,-0.00152102,-0.00283123,0.00278911,0.02373
 597,-0.04374915,0.00004387,-0.00003110,-0.00004212,0.00001143,0.000014
 15,0.00002318,0.00003204,0.00001683,-0.00003150,0.00001300,0.00000208,
 -0.00001463,-0.00001658,-0.00000612,-0.00000605,-0.00000709,0.00000304
 ,0.00000467,0.00000215,0.00000129,0.00000243,0.00000158,-0.00000301,-0
 .00000275,0.00000468,0.00002056,-0.00002679,0.00001116,-0.00000934,-0.
 00001738,-0.00001064,-0.00000471,0.00000634,-0.00031253,0.00000796,0.0
 0009288,0.00071345,0.00117153,-0.00079851,-0.00009061,0.00000171,0.000
 04912,-0.00000604,0.00002116,-0.00006585,0.00021692,-0.00000429,-0.000
 04846,-0.00135322,-0.00060696,-0.00004805,-0.00051836,0.00040471,-0.00
 045514,-0.00008854,0.00008757,0.00004473,-0.00042717,-0.00093902,-0.00
 074054,0.00000009,0.00014859,0.00016204,0.00336510,0.02941846,-0.00222
 223,-0.00388558,-0.02389783,0.04977093,0.00004198,-0.00003401,0.000027
 82,0.00033052,0.00030912,-0.00017406,0.00005831,-0.00007524,0.00000726
 ,0.00000702,0.00005011,-0.00004091,-0.00000948,0.00001550,-0.00001815,
 -0.00001360,0.00002231,-0.00001351,-0.00007165,-0.00000546,-0.00004277
 ,0.00011882,-0.00027455,-0.00008060,0.00018402,0.00281781,0.00191170,-
 0.01822501,-0.00468688,-0.00152010,0.00105170,-0.00172372,-0.00127704,
 -0.29086625,-0.06312811,-0.02499836,0.00001454,0.00001945,-0.00001086,
 -0.00005684,-0.00002552,-0.00001928,0.00000797,-0.00004453,0.00004753,
 -0.00005433,0.00001426,-0.00001247,0.00000931,-0.00003463,-0.00000515,
 -0.00001945,0.00001511,-0.00000617,0.00000059,-0.00000993,0.00000155,0
 .00000998,-0.00000332,0.00000084,0.00001584,-0.00001402,0.00002689,-0.
 00002640,0.00001844,-0.00000245,0.00000916,-0.00000474,0.00000433,-0.0
 0001957,-0.00006502,0.00000229,-0.00003306,0.00004808,-0.00003362,-0.0
 0001124,0.00001786,0.00003084,0.00014801,-0.00003109,0.00004115,-0.000
 08410,-0.00001173,0.00008314,-0.00021416,0.00016625,-0.00001180,-0.000
 52983,-0.00044787,0.00075114,0.00046995,0.00063239,0.00067616,0.000434
 44,-0.00036795,-0.00014971,-0.00010901,0.00067991,0.00011924,-0.008353
 51,-0.00229864,-0.00038815,-0.00083121,0.00014893,-0.00008940,0.316616
 54,-0.00001373,-0.00003247,-0.00001300,0.00014892,-0.00041607,-0.00018
 238,0.00002519,0.00008257,0.00003776,-0.00000336,-0.00002865,0.0000260
 9,0.00000156,0.00001558,-0.00000454,-0.00000964,0.00002158,-0.00003396
 ,0.00023123,-0.00013392,0.00010663,0.00006554,-0.00091416,-0.00040402,
 0.00099412,-0.00174750,-0.00273251,0.01683617,0.00308521,0.00246494,0.
 00142061,0.00031442,-0.00062627,-0.06555410,-0.06482757,-0.00666807,-0
 .00005654,0.00001343,0.00006896,0.00004268,0.00002563,0.00001029,-0.00
 001419,0.00000548,-0.00002824,0.00002458,0.00000414,-0.00000072,-0.000
 01247,0.00002466,0.00001160,-0.00000469,0.00000214,0.00000016,0.000004
 71,-0.00000007,-0.00000267,-0.00000273,0.00000219,0.00000758,-0.000006
 35,-0.00002016,0.00003137,-0.00001943,0.00001353,0.00001445,0.00001697
 ,0.00000464,-0.00000079,-0.00009426,0.00006964,0.00002345,-0.00019829,
 0.00016567,-0.00016364,-0.00009272,-0.00002824,0.00009387,-0.00004476,
 0.00011350,-0.00006933,-0.00035101,0.00022448,0.00007143,-0.00057286,0
 .00044182,0.00032969,0.00028706,0.00076269,-0.00072640,-0.00003717,0.0
 0012673,-0.00039077,-0.00013506,-0.00001005,0.00025549,0.00017759,-0.0
 0031066,0.00033702,0.00914324,0.00151807,0.00072777,-0.03050827,-0.005
 85779,-0.00401565,0.06831144,0.06728953,-0.00000953,-0.00000241,-0.000
 02483,-0.00018634,-0.00037831,0.00002567,0.00004730,0.00006599,0.00003
 142,0.00002078,-0.00001797,-0.00001761,0.00000356,-0.00000267,0.000006
 25,0.00000991,-0.00000026,-0.00002824,-0.00005949,-0.00000685,0.000019
 40,-0.00035780,-0.00034220,-0.00018390,0.00088815,-0.00303087,-0.00301
 017,0.02497518,0.00622760,0.00055522,0.00122944,0.00022138,0.00098002,
 -0.02728421,-0.00694045,-0.04705181,-0.00003490,0.00001917,0.00007269,
 0.00004469,0.00001933,0.00000660,-0.00000248,-0.00000988,-0.00001937,0
 .00000263,0.00000322,0.00001485,-0.00001507,0.00002870,0.00002225,0.00
 000200,-0.00000042,-0.00000052,-0.00000061,-0.00000033,-0.00000031,-0.
 00000467,0.00000358,0.00000841,0.00000793,-0.00001338,0.00002660,-0.00
 001152,0.00000816,0.00001394,0.00000586,0.00000324,0.00000153,0.000019
 04,0.00001175,-0.00002359,0.00002211,-0.00004335,0.00003334,0.00003053
 ,-0.00002549,0.00002008,0.00028140,-0.00020585,0.00004601,-0.00020007,
 -0.00002917,0.00023348,-0.00024189,0.00032216,-0.00003227,0.00088088,0
 .00051248,-0.00077861,-0.00030136,-0.00023637,-0.00077002,-0.00016927,
 0.00026590,0.00012650,-0.00019916,-0.00002324,0.00006866,-0.02849240,-
 0.00878991,-0.00202063,0.00393669,0.00094227,-0.00084895,0.02516268,0.
 01144442,0.05249793\\0.00000003,0.00000489,0.00000003,0.00000223,-0.00
 000566,-0.00000059,-0.00000582,0.00001157,-0.00000151,0.00000096,-0.00
 000054,0.00000059,-0.00000057,0.00000027,0.00000021,0.00000336,-0.0000
 0228,-0.00000594,-0.00000528,0.00000606,0.,0.00000416,0.00000061,0.000
 00388,0.00000536,-0.00000770,-0.00000795,-0.00000191,0.00000153,0.0000
 0296,0.00000164,-0.00000389,-0.00000177,-0.00000171,-0.00000759,-0.000
 00255,-0.00000246,0.00000158,0.00000152,-0.00000364,0.00000165,0.00000
 099,0.00000213,0.00000142,-0.00000057,0.00000326,0.00000108,-0.0000014
 0,0.00000423,0.00000261,-0.00000102,0.00000149,0.00000412,-0.00000170,
 -0.00000054,0.00000448,0.00000105,0.00000146,0.00000413,-0.00000147,-0
 .00000285,-0.00000074,0.00000205,0.00000049,0.00000208,0.00000051,-0.0
 0000282,0.00000025,0.00000443,-0.00000212,0.00000099,0.00000223,0.0000
 0079,-0.00000021,0.00000102,-0.00000121,0.00000052,0.00000239,-0.00000
 030,-0.00000272,0.00000105,-0.00000334,-0.00000223,0.00000115,-0.00000
 324,-0.00000249,0.00000022,0.00000085,0.00000025,0.00000240,0.00000108
 ,-0.00000109,-0.00000200,0.00000257,-0.00000039,-0.00000200,0.00000194
 ,-0.00000167,-0.00000310,0.00000102,-0.00000339,0.00000004,-0.00000223
 ,-0.00000350,0.00000439,0.00000098,-0.00000398,0.00000046\\\@


 The chemist is a guest at the physicist's table and
 frequently dines well.
                   -- Richard Bersohn
 Job cpu time:       0 days  8 hours 31 minutes 10.1 seconds.
 Elapsed time:       0 days  0 hours 32 minutes  5.2 seconds.
 File lengths (MBytes):  RWF=    539 Int=      0 D2E=      0 Chk=     17 Scr=      1
 Normal termination of Gaussian 16 at Wed Oct 15 15:53:14 2025.
