 Entering Gaussian System, Link 0=g16
 Input=TCYE0161.gjf
 Output=TCYE0161.log
 Initial command:
 /usr/local/g16/l1.exe "/dados_01/scratch/Gau-2284442.inp" -scrdir="/dados_01/scratch/"
 Entering Link 1 = /usr/local/g16/l1.exe PID=   2284443.
  
 Copyright (c) 1988-2017, Gaussian, Inc.  All Rights Reserved.
  
 This is part of the Gaussian(R) 16 program.  It is based on
 the Gaussian(R) 09 system (copyright 2009, Gaussian, Inc.),
 the Gaussian(R) 03 system (copyright 2003, Gaussian, Inc.),
 the Gaussian(R) 98 system (copyright 1998, Gaussian, Inc.),
 the Gaussian(R) 94 system (copyright 1995, Gaussian, Inc.),
 the Gaussian 92(TM) system (copyright 1992, Gaussian, Inc.),
 the Gaussian 90(TM) system (copyright 1990, Gaussian, Inc.),
 the Gaussian 88(TM) system (copyright 1988, Gaussian, Inc.),
 the Gaussian 86(TM) system (copyright 1986, Carnegie Mellon
 University), and the Gaussian 82(TM) system (copyright 1983,
 Carnegie Mellon University). Gaussian is a federally registered
 trademark of Gaussian, Inc.
  
 This software contains proprietary and confidential information,
 including trade secrets, belonging to Gaussian, Inc.
  
 This software is provided under written license and may be
 used, copied, transmitted, or stored only in accord with that
 written license.
  
 The following legend is applicable only to US Government
 contracts under FAR:
  
                    RESTRICTED RIGHTS LEGEND
  
 Use, reproduction and disclosure by the US Government is
 subject to restrictions as set forth in subparagraphs (a)
 and (c) of the Commercial Computer Software - Restricted
 Rights clause in FAR 52.227-19.
  
 Gaussian, Inc.
 340 Quinnipiac St., Bldg. 40, Wallingford CT 06492
  
  
 ---------------------------------------------------------------
 Warning -- This program may not be used in any manner that
 competes with the business of Gaussian, Inc. or will provide
 assistance to any competitor of Gaussian, Inc.  The licensee
 of this program is prohibited from giving any competitor of
 Gaussian, Inc. access to this program.  By using this program,
 the user acknowledges that Gaussian, Inc. is engaged in the
 business of creating and licensing software in the field of
 computational chemistry and represents and warrants to the
 licensee that it is not a competitor of Gaussian, Inc. and that
 it will not use this program in any manner prohibited above.
 ---------------------------------------------------------------
  

 Cite this work as:
 Gaussian 16, Revision B.01,
 M. J. Frisch, G. W. Trucks, H. B. Schlegel, G. E. Scuseria, 
 M. A. Robb, J. R. Cheeseman, G. Scalmani, V. Barone, 
 G. A. Petersson, H. Nakatsuji, X. Li, M. Caricato, A. V. Marenich, 
 J. Bloino, B. G. Janesko, R. Gomperts, B. Mennucci, H. P. Hratchian, 
 J. V. Ortiz, A. F. Izmaylov, J. L. Sonnenberg, D. Williams-Young, 
 F. Ding, F. Lipparini, F. Egidi, J. Goings, B. Peng, A. Petrone, 
 T. Henderson, D. Ranasinghe, V. G. Zakrzewski, J. Gao, N. Rega, 
 G. Zheng, W. Liang, M. Hada, M. Ehara, K. Toyota, R. Fukuda, 
 J. Hasegawa, M. Ishida, T. Nakajima, Y. Honda, O. Kitao, H. Nakai, 
 T. Vreven, K. Throssell, J. A. Montgomery, Jr., J. E. Peralta, 
 F. Ogliaro, M. J. Bearpark, J. J. Heyd, E. N. Brothers, K. N. Kudin, 
 V. N. Staroverov, T. A. Keith, R. Kobayashi, J. Normand, 
 K. Raghavachari, A. P. Rendell, J. C. Burant, S. S. Iyengar, 
 J. Tomasi, M. Cossi, J. M. Millam, M. Klene, C. Adamo, R. Cammi, 
 J. W. Ochterski, R. L. Martin, K. Morokuma, O. Farkas, 
 J. B. Foresman, and D. J. Fox, Gaussian, Inc., Wallingford CT, 2016.
 
 ******************************************
 Gaussian 16:  ES64L-G16RevB.01 20-Dec-2017
                27-Sep-2025 
 ******************************************
 %nprocs=16
 Will use up to   16 processors via shared memory.
 %mem=40GB
 %chk=TCYE0161.chk
 ----------------------------------------------------------------------
 # opt freq=noraman M08HX/6-311++G** scf=xqc Empiricaldispersion=pfd In
 t(Grid=ultraFine)
 ----------------------------------------------------------------------
 1/18=20,19=15,26=4,38=1/1,3;
 2/9=110,12=2,17=6,18=5,40=1/2;
 3/5=4,6=6,7=1111,11=2,25=1,30=1,71=1,74=-74,75=-5,124=11/1,2,3;
 4//1;
 5/5=2,8=3,13=1,38=5/2,8;
 6/7=2,8=2,9=2,10=2,28=1/1;
 7//1,2,3,16;
 1/18=20,19=15,26=4/3(2);
 2/9=110/2;
 99//99;
 2/9=110/2;
 3/5=4,6=6,7=1111,11=2,25=1,30=1,71=1,74=-74,75=-5,124=11/1,2,3;
 4/5=5,16=3,69=1/1;
 5/5=2,8=3,13=1,38=5/2,8;
 7//1,2,3,16;
 1/18=20,19=15,26=4/3(-5);
 2/9=110/2;
 6/7=2,8=2,9=2,10=2,19=2,28=1/1;
 99/9=1/99;
 --------
 TCYE0161
 --------
 Symbolic Z-matrix:
 Charge =  0 Multiplicity = 1
 C                    -0.0001    0.8467    0.2122 
 C                     1.2794    0.098    -0.259 
 C                    -1.2794    0.0977   -0.2589 
 C                     1.2548   -1.3738    0.1826 
 C                    -1.2544   -1.3741    0.183 
 C                     0.0002   -2.0887   -0.2958 
 C                    -0.0004    2.305    -0.2693 
 C                     2.5716    0.7449    0.2528 
 C                    -2.5717    0.7444    0.2525 
 H                    -0.0001    0.8638    1.3113 
 H                     1.31      0.1205   -1.3572 
 H                    -1.3099    0.1199   -1.3571 
 H                     1.3137   -1.4356    1.2769 
 H                     2.1342   -1.8974   -0.2116 
 H                    -2.1338   -1.898    -0.2107 
 H                    -1.3129   -1.4356    1.2774 
 H                     0.       -2.1419   -1.3914 
 H                     0.0004   -3.1203    0.074 
 H                    -0.0006    2.3589   -1.363 
 H                    -0.873     2.8513    0.0999 
 H                     0.8722    2.8514    0.0995 
 H                     3.4426    0.1335   -0.0078 
 H                     2.7323    1.7299   -0.1946 
 H                     2.5534    0.8593    1.3417 
 H                    -2.7327    1.7293   -0.1953 
 H                    -3.4426    0.1328   -0.008 
 H                    -2.5537    0.8592    1.3414 
 

 GradGradGradGradGradGradGradGradGradGradGradGradGradGradGradGradGradGrad
 Berny optimization.
 Initialization pass.
                           ----------------------------
                           !    Initial Parameters    !
                           ! (Angstroms and Degrees)  !
 --------------------------                            --------------------------
 ! Name  Definition              Value          Derivative Info.                !
 --------------------------------------------------------------------------------
 ! R1    R(1,2)                  1.5555         estimate D2E/DX2                !
 ! R2    R(1,3)                  1.5555         estimate D2E/DX2                !
 ! R3    R(1,7)                  1.5357         estimate D2E/DX2                !
 ! R4    R(1,10)                 1.0992         estimate D2E/DX2                !
 ! R5    R(2,4)                  1.5368         estimate D2E/DX2                !
 ! R6    R(2,8)                  1.533          estimate D2E/DX2                !
 ! R7    R(2,11)                 1.0989         estimate D2E/DX2                !
 ! R8    R(3,5)                  1.5369         estimate D2E/DX2                !
 ! R9    R(3,9)                  1.5329         estimate D2E/DX2                !
 ! R10   R(3,12)                 1.0988         estimate D2E/DX2                !
 ! R11   R(4,6)                  1.5212         estimate D2E/DX2                !
 ! R12   R(4,13)                 1.0976         estimate D2E/DX2                !
 ! R13   R(4,14)                 1.0968         estimate D2E/DX2                !
 ! R14   R(5,6)                  1.5212         estimate D2E/DX2                !
 ! R15   R(5,15)                 1.0967         estimate D2E/DX2                !
 ! R16   R(5,16)                 1.0977         estimate D2E/DX2                !
 ! R17   R(6,17)                 1.0969         estimate D2E/DX2                !
 ! R18   R(6,18)                 1.0959         estimate D2E/DX2                !
 ! R19   R(7,19)                 1.095          estimate D2E/DX2                !
 ! R20   R(7,20)                 1.0937         estimate D2E/DX2                !
 ! R21   R(7,21)                 1.0936         estimate D2E/DX2                !
 ! R22   R(8,22)                 1.0956         estimate D2E/DX2                !
 ! R23   R(8,23)                 1.0937         estimate D2E/DX2                !
 ! R24   R(8,24)                 1.095          estimate D2E/DX2                !
 ! R25   R(9,25)                 1.0938         estimate D2E/DX2                !
 ! R26   R(9,26)                 1.0956         estimate D2E/DX2                !
 ! R27   R(9,27)                 1.0951         estimate D2E/DX2                !
 ! A1    A(2,1,3)              110.6704         estimate D2E/DX2                !
 ! A2    A(2,1,7)              111.2372         estimate D2E/DX2                !
 ! A3    A(2,1,10)             108.0814         estimate D2E/DX2                !
 ! A4    A(3,1,7)              111.2307         estimate D2E/DX2                !
 ! A5    A(3,1,10)             108.0783         estimate D2E/DX2                !
 ! A6    A(7,1,10)             107.3808         estimate D2E/DX2                !
 ! A7    A(1,2,4)              111.1457         estimate D2E/DX2                !
 ! A8    A(1,2,8)              112.8982         estimate D2E/DX2                !
 ! A9    A(1,2,11)             108.4083         estimate D2E/DX2                !
 ! A10   A(4,2,8)              108.7647         estimate D2E/DX2                !
 ! A11   A(4,2,11)             107.8924         estimate D2E/DX2                !
 ! A12   A(8,2,11)             107.5498         estimate D2E/DX2                !
 ! A13   A(1,3,5)              111.1409         estimate D2E/DX2                !
 ! A14   A(1,3,9)              112.9028         estimate D2E/DX2                !
 ! A15   A(1,3,12)             108.4082         estimate D2E/DX2                !
 ! A16   A(5,3,9)              108.7716         estimate D2E/DX2                !
 ! A17   A(5,3,12)             107.8878         estimate D2E/DX2                !
 ! A18   A(9,3,12)             107.5475         estimate D2E/DX2                !
 ! A19   A(2,4,6)              111.8956         estimate D2E/DX2                !
 ! A20   A(2,4,13)             109.8488         estimate D2E/DX2                !
 ! A21   A(2,4,14)             109.9435         estimate D2E/DX2                !
 ! A22   A(6,4,13)             109.35           estimate D2E/DX2                !
 ! A23   A(6,4,14)             108.899          estimate D2E/DX2                !
 ! A24   A(13,4,14)            106.7637         estimate D2E/DX2                !
 ! A25   A(3,5,6)              111.8876         estimate D2E/DX2                !
 ! A26   A(3,5,15)             109.9499         estimate D2E/DX2                !
 ! A27   A(3,5,16)             109.8434         estimate D2E/DX2                !
 ! A28   A(6,5,15)             108.9008         estimate D2E/DX2                !
 ! A29   A(6,5,16)             109.357          estimate D2E/DX2                !
 ! A30   A(15,5,16)            106.7625         estimate D2E/DX2                !
 ! A31   A(4,6,5)              111.1287         estimate D2E/DX2                !
 ! A32   A(4,6,17)             109.6983         estimate D2E/DX2                !
 ! A33   A(4,6,18)             109.641          estimate D2E/DX2                !
 ! A34   A(5,6,17)             109.6956         estimate D2E/DX2                !
 ! A35   A(5,6,18)             109.6428         estimate D2E/DX2                !
 ! A36   A(17,6,18)            106.9414         estimate D2E/DX2                !
 ! A37   A(1,7,19)             111.0935         estimate D2E/DX2                !
 ! A38   A(1,7,20)             111.631          estimate D2E/DX2                !
 ! A39   A(1,7,21)             111.626          estimate D2E/DX2                !
 ! A40   A(19,7,20)            108.2056         estimate D2E/DX2                !
 ! A41   A(19,7,21)            108.2023         estimate D2E/DX2                !
 ! A42   A(20,7,21)            105.8548         estimate D2E/DX2                !
 ! A43   A(2,8,22)             110.8064         estimate D2E/DX2                !
 ! A44   A(2,8,23)             111.5499         estimate D2E/DX2                !
 ! A45   A(2,8,24)             111.2261         estimate D2E/DX2                !
 ! A46   A(22,8,23)            106.7662         estimate D2E/DX2                !
 ! A47   A(22,8,24)            107.9409         estimate D2E/DX2                !
 ! A48   A(23,8,24)            108.3683         estimate D2E/DX2                !
 ! A49   A(3,9,25)             111.5537         estimate D2E/DX2                !
 ! A50   A(3,9,26)             110.812          estimate D2E/DX2                !
 ! A51   A(3,9,27)             111.2293         estimate D2E/DX2                !
 ! A52   A(25,9,26)            106.7558         estimate D2E/DX2                !
 ! A53   A(25,9,27)            108.3669         estimate D2E/DX2                !
 ! A54   A(26,9,27)            107.9392         estimate D2E/DX2                !
 ! D1    D(3,1,2,4)            -53.8613         estimate D2E/DX2                !
 ! D2    D(3,1,2,8)           -176.394          estimate D2E/DX2                !
 ! D3    D(3,1,2,11)            64.557          estimate D2E/DX2                !
 ! D4    D(7,1,2,4)           -178.0456         estimate D2E/DX2                !
 ! D5    D(7,1,2,8)             59.4217         estimate D2E/DX2                !
 ! D6    D(7,1,2,11)           -59.6274         estimate D2E/DX2                !
 ! D7    D(10,1,2,4)            64.3078         estimate D2E/DX2                !
 ! D8    D(10,1,2,8)           -58.2249         estimate D2E/DX2                !
 ! D9    D(10,1,2,11)         -177.2739         estimate D2E/DX2                !
 ! D10   D(2,1,3,5)             53.8715         estimate D2E/DX2                !
 ! D11   D(2,1,3,9)            176.4131         estimate D2E/DX2                !
 ! D12   D(2,1,3,12)           -64.5381         estimate D2E/DX2                !
 ! D13   D(7,1,3,5)            178.0596         estimate D2E/DX2                !
 ! D14   D(7,1,3,9)            -59.3989         estimate D2E/DX2                !
 ! D15   D(7,1,3,12)            59.6499         estimate D2E/DX2                !
 ! D16   D(10,1,3,5)           -64.2995         estimate D2E/DX2                !
 ! D17   D(10,1,3,9)            58.2421         estimate D2E/DX2                !
 ! D18   D(10,1,3,12)          177.2909         estimate D2E/DX2                !
 ! D19   D(2,1,7,19)            61.94           estimate D2E/DX2                !
 ! D20   D(2,1,7,20)          -177.1827         estimate D2E/DX2                !
 ! D21   D(2,1,7,21)           -58.9297         estimate D2E/DX2                !
 ! D22   D(3,1,7,19)           -61.9266         estimate D2E/DX2                !
 ! D23   D(3,1,7,20)            58.9507         estimate D2E/DX2                !
 ! D24   D(3,1,7,21)           177.2037         estimate D2E/DX2                !
 ! D25   D(10,1,7,19)         -179.9896         estimate D2E/DX2                !
 ! D26   D(10,1,7,20)          -59.1123         estimate D2E/DX2                !
 ! D27   D(10,1,7,21)           59.1407         estimate D2E/DX2                !
 ! D28   D(1,2,4,6)             55.3956         estimate D2E/DX2                !
 ! D29   D(1,2,4,13)           -66.2547         estimate D2E/DX2                !
 ! D30   D(1,2,4,14)           176.5394         estimate D2E/DX2                !
 ! D31   D(8,2,4,6)           -179.7137         estimate D2E/DX2                !
 ! D32   D(8,2,4,13)            58.636          estimate D2E/DX2                !
 ! D33   D(8,2,4,14)           -58.57           estimate D2E/DX2                !
 ! D34   D(11,2,4,6)           -63.3332         estimate D2E/DX2                !
 ! D35   D(11,2,4,13)          175.0165         estimate D2E/DX2                !
 ! D36   D(11,2,4,14)           57.8106         estimate D2E/DX2                !
 ! D37   D(1,2,8,22)           173.9643         estimate D2E/DX2                !
 ! D38   D(1,2,8,23)           -67.2294         estimate D2E/DX2                !
 ! D39   D(1,2,8,24)            53.8918         estimate D2E/DX2                !
 ! D40   D(4,2,8,22)            50.1101         estimate D2E/DX2                !
 ! D41   D(4,2,8,23)           168.9163         estimate D2E/DX2                !
 ! D42   D(4,2,8,24)           -69.9625         estimate D2E/DX2                !
 ! D43   D(11,2,8,22)          -66.4901         estimate D2E/DX2                !
 ! D44   D(11,2,8,23)           52.3161         estimate D2E/DX2                !
 ! D45   D(11,2,8,24)          173.4373         estimate D2E/DX2                !
 ! D46   D(1,3,5,6)            -55.417          estimate D2E/DX2                !
 ! D47   D(1,3,5,15)          -176.562          estimate D2E/DX2                !
 ! D48   D(1,3,5,16)            66.2331         estimate D2E/DX2                !
 ! D49   D(9,3,5,6)            179.6849         estimate D2E/DX2                !
 ! D50   D(9,3,5,15)            58.5399         estimate D2E/DX2                !
 ! D51   D(9,3,5,16)           -58.6651         estimate D2E/DX2                !
 ! D52   D(12,3,5,6)            63.306          estimate D2E/DX2                !
 ! D53   D(12,3,5,15)          -57.839          estimate D2E/DX2                !
 ! D54   D(12,3,5,16)         -175.044          estimate D2E/DX2                !
 ! D55   D(1,3,9,25)            67.237          estimate D2E/DX2                !
 ! D56   D(1,3,9,26)          -173.9637         estimate D2E/DX2                !
 ! D57   D(1,3,9,27)           -53.8873         estimate D2E/DX2                !
 ! D58   D(5,3,9,25)          -168.9067         estimate D2E/DX2                !
 ! D59   D(5,3,9,26)           -50.1073         estimate D2E/DX2                !
 ! D60   D(5,3,9,27)            69.969          estimate D2E/DX2                !
 ! D61   D(12,3,9,25)          -52.3095         estimate D2E/DX2                !
 ! D62   D(12,3,9,26)           66.4898         estimate D2E/DX2                !
 ! D63   D(12,3,9,27)         -173.4339         estimate D2E/DX2                !
 ! D64   D(2,4,6,5)            -56.2631         estimate D2E/DX2                !
 ! D65   D(2,4,6,17)            65.2119         estimate D2E/DX2                !
 ! D66   D(2,4,6,18)          -177.6332         estimate D2E/DX2                !
 ! D67   D(13,4,6,5)            65.6737         estimate D2E/DX2                !
 ! D68   D(13,4,6,17)         -172.8513         estimate D2E/DX2                !
 ! D69   D(13,4,6,18)          -55.6963         estimate D2E/DX2                !
 ! D70   D(14,4,6,5)          -178.0091         estimate D2E/DX2                !
 ! D71   D(14,4,6,17)          -56.5341         estimate D2E/DX2                !
 ! D72   D(14,4,6,18)           60.6209         estimate D2E/DX2                !
 ! D73   D(3,5,6,4)             56.2719         estimate D2E/DX2                !
 ! D74   D(3,5,6,17)           -65.2047         estimate D2E/DX2                !
 ! D75   D(3,5,6,18)           177.6408         estimate D2E/DX2                !
 ! D76   D(15,5,6,4)           178.0218         estimate D2E/DX2                !
 ! D77   D(15,5,6,17)           56.5453         estimate D2E/DX2                !
 ! D78   D(15,5,6,18)          -60.6092         estimate D2E/DX2                !
 ! D79   D(16,5,6,4)           -65.6576         estimate D2E/DX2                !
 ! D80   D(16,5,6,17)          172.8658         estimate D2E/DX2                !
 ! D81   D(16,5,6,18)           55.7113         estimate D2E/DX2                !
 --------------------------------------------------------------------------------
 Trust Radius=3.00D-01 FncErr=1.00D-07 GrdErr=1.00D-06 EigMax=2.50D+02 EigMin=1.00D-04
 Number of steps in this run=    162 maximum allowed number of steps=    162.
 GradGradGradGradGradGradGradGradGradGradGradGradGradGradGradGradGradGrad

                          Input orientation:                          
 ---------------------------------------------------------------------
 Center     Atomic      Atomic             Coordinates (Angstroms)
 Number     Number       Type             X           Y           Z
 ---------------------------------------------------------------------
      1          6           0       -0.000100    0.846700    0.212200
      2          6           0        1.279400    0.098000   -0.259000
      3          6           0       -1.279400    0.097700   -0.258900
      4          6           0        1.254800   -1.373800    0.182600
      5          6           0       -1.254400   -1.374100    0.183000
      6          6           0        0.000200   -2.088700   -0.295800
      7          6           0       -0.000400    2.305000   -0.269300
      8          6           0        2.571600    0.744900    0.252800
      9          6           0       -2.571700    0.744400    0.252500
     10          1           0       -0.000100    0.863800    1.311300
     11          1           0        1.310000    0.120500   -1.357200
     12          1           0       -1.309900    0.119900   -1.357100
     13          1           0        1.313700   -1.435600    1.276900
     14          1           0        2.134200   -1.897400   -0.211600
     15          1           0       -2.133800   -1.898000   -0.210700
     16          1           0       -1.312900   -1.435600    1.277400
     17          1           0        0.000000   -2.141900   -1.391400
     18          1           0        0.000400   -3.120300    0.074000
     19          1           0       -0.000600    2.358900   -1.363000
     20          1           0       -0.873000    2.851300    0.099900
     21          1           0        0.872200    2.851400    0.099500
     22          1           0        3.442600    0.133500   -0.007800
     23          1           0        2.732300    1.729900   -0.194600
     24          1           0        2.553400    0.859300    1.341700
     25          1           0       -2.732700    1.729300   -0.195300
     26          1           0       -3.442600    0.132800   -0.008000
     27          1           0       -2.553700    0.859200    1.341400
 ---------------------------------------------------------------------
                    Distance matrix (angstroms):
                    1          2          3          4          5
     1  C    0.000000
     2  C    1.555539   0.000000
     3  C    1.555489   2.558800   0.000000
     4  C    2.550739   1.536818   2.963512   0.000000
     5  C    2.550701   2.963543   1.536911   2.509200   0.000000
     6  C    2.979033   2.533646   2.533591   1.521174   1.521159
     7  C    1.535735   2.551243   2.551102   3.913222   3.913166
     8  C    2.574034   1.533036   3.938389   2.495552   4.374164
     9  C    2.573949   3.938329   1.532903   4.374215   2.495627
    10  H    1.099233   2.165505   2.165420   2.802783   2.802593
    11  H    2.169503   1.098857   2.812788   2.146384   3.343979
    12  H    2.169451   2.812610   1.098848   3.343576   2.146398
    13  H    2.840519   2.170736   3.381399   1.097625   2.792049
    14  H    3.502132   2.171302   3.954153   1.096766   3.451400
    15  H    3.502128   3.954274   2.171438   3.451388   1.096729
    16  H    2.840244   3.381194   2.170795   2.792040   1.097687
    17  H    3.391646   2.817152   2.816954   2.154525   2.154477
    18  H    3.969407   3.479107   3.479114   2.153039   2.153049
    19  H    2.183576   2.822921   2.822657   4.230598   4.230534
    20  H    2.189289   3.513160   2.806459   4.731368   4.243392
    21  H    2.189162   2.806340   3.512933   4.243301   4.731200
    22  H    3.522675   2.178026   4.728807   2.663583   4.936707
    23  H    2.900265   2.185901   4.331506   3.458069   5.066673
    24  H    2.792184   2.182864   4.222832   2.831362   4.563990
    25  H    2.900369   4.331529   2.185920   5.066774   3.458262
    26  H    3.522634   4.728794   2.177985   4.936774   2.663728
    27  H    2.792154   4.222956   2.182815   4.564403   2.831554
                    6          7          8          9         10
     6  C    0.000000
     7  C    4.393780   0.000000
     8  C    3.865533   3.053143   0.000000
     9  C    3.865457   3.052758   5.143300   0.000000
    10  H    3.361551   2.139008   2.783559   2.783602   0.000000
    11  H    2.778977   2.769967   2.138600   4.248291   3.064270
    12  H    2.778603   2.769975   4.248346   2.138446   3.064200
    13  H    2.150629   4.255547   2.717660   4.571447   2.648489
    14  H    2.144211   4.713811   2.718223   5.416640   3.807714
    15  H    2.144193   4.713814   5.416691   2.718196   3.807453
    16  H    2.150751   4.255235   4.570966   2.717977   2.647987
    17  H    1.096891   4.586287   4.201206   4.200807   4.042131
    18  H    1.095879   5.436151   4.645730   4.645801   4.171806
    19  H    4.573845   1.095027   3.439770   3.439041   3.063855
    20  H    5.032162   1.093702   4.040491   2.710700   2.485880
    21  H    5.032021   1.093617   2.710868   4.040211   2.485945
    22  H    4.107461   4.078976   1.095611   6.050848   3.758397
    23  H    4.696415   2.793559   1.093717   5.413273   3.237881
    24  H    4.229768   3.347725   1.095044   5.240821   2.553685
    25  H    4.696378   2.793272   5.413449   1.093834   3.238215
    26  H    4.107403   4.078660   6.050891   1.095619   3.758420
    27  H    4.230005   3.347243   5.240879   1.095083   2.553782
                   11         12         13         14         15
    11  H    0.000000
    12  H    2.619900   0.000000
    13  H    3.059403   4.029989   0.000000
    14  H    2.462443   4.152529   1.761281   0.000000
    15  H    4.153139   2.462715   3.783124   4.268000   0.000000
    16  H    4.030157   3.059441   2.626600   3.783237   1.761287
    17  H    2.614522   2.613954   3.056876   2.450820   2.450845
    18  H    3.777058   3.776749   2.451518   2.475915   2.475860
    19  H    2.593866   2.593727   4.805693   4.898896   4.898932
    20  H    3.787598   3.126384   4.954240   5.629426   4.923610
    21  H    3.125933   3.787392   4.467613   4.923467   5.629304
    22  H    2.523694   4.940349   2.940195   2.424459   5.938383
    23  H    2.442283   4.503653   3.768040   3.676319   6.069666
    24  H    3.062014   4.770254   2.609142   3.191843   5.655307
    25  H    4.503518   2.442193   5.343905   6.069591   3.676442
    26  H    4.940415   2.523618   5.170419   5.938338   2.424499
    27  H    4.770356   3.061945   4.497449   5.655710   3.191784
                   16         17         18         19         20
    16  H    0.000000
    17  H    3.056969   0.000000
    18  H    2.451763   1.762006   0.000000
    19  H    4.805421   4.500890   5.664504   0.000000
    20  H    4.467385   5.283763   6.035189   1.773025   0.000000
    21  H    4.953835   5.283612   6.035055   1.772919   1.745200
    22  H    5.169970   4.352389   4.737367   4.317939   5.101219
    23  H    5.343296   4.887599   5.573138   3.038016   3.787144
    24  H    4.496552   4.795507   4.895109   4.010875   4.153354
    25  H    3.768457   4.887176   5.573238   3.037152   2.191920
    26  H    2.940706   4.351959   4.737471   4.317280   3.742289
    27  H    2.609557   4.795433   4.895523   4.010137   2.886960
                   21         22         23         24         25
    21  H    0.000000
    22  H    3.742386   0.000000
    23  H    2.191855   1.757246   0.000000
    24  H    2.887552   1.771613   1.774871   0.000000
    25  H    3.786993   6.380914   5.465000   5.573340   0.000000
    26  H    5.100965   6.885200   6.380826   6.188821   1.757228
    27  H    4.153067   6.188909   5.573079   5.107100   1.774982
                   26         27
    26  H    0.000000
    27  H    1.771632   0.000000
 Stoichiometry    C9H18
 Framework group  C1[X(C9H18)]
 Deg. of freedom    75
 Full point group                 C1      NOp   1
 Largest Abelian subgroup         C1      NOp   1
 Largest concise Abelian subgroup C1      NOp   1
                         Standard orientation:                         
 ---------------------------------------------------------------------
 Center     Atomic      Atomic             Coordinates (Angstroms)
 Number     Number       Type             X           Y           Z
 ---------------------------------------------------------------------
      1          6           0        0.000119   -0.808897    0.207087
      2          6           0       -1.279400   -0.061523   -0.266161
      3          6           0        1.279400   -0.061131   -0.266020
      4          6           0       -1.254860    1.411469    0.171451
      5          6           0        1.254340    1.411860    0.171891
      6          6           0       -0.000278    2.125115   -0.308864
      7          6           0        0.000479   -2.268497   -0.270461
      8          6           0       -2.571586   -0.707080    0.247369
      9          6           0        2.571714   -0.706397    0.247151
     10          1           0        0.000101   -0.823020    1.306229
     11          1           0       -1.309982   -0.086999   -1.364296
     12          1           0        1.309918   -0.086305   -1.364155
     13          1           0       -1.313780    1.476232    1.265578
     14          1           0       -2.134273    1.933968   -0.224181
     15          1           0        2.133727    1.934723   -0.223213
     16          1           0        1.312820    1.476327    1.266121
     17          1           0       -0.000062    2.175347   -1.404604
     18          1           0       -0.000521    3.157714    0.058140
     19          1           0        0.000699   -2.325359   -1.364011
     20          1           0        0.873092   -2.813763    0.100232
     21          1           0       -0.872108   -2.813927    0.099804
     22          1           0       -3.442603   -0.096419   -0.014901
     23          1           0       -2.732243   -1.693294   -0.197363
     24          1           0       -2.553399   -0.818529    1.336575
     25          1           0        2.732757   -1.692500   -0.197976
     26          1           0        3.442597   -0.095473   -0.014991
     27          1           0        2.553701   -0.818247    1.336358
 ---------------------------------------------------------------------
 Rotational constants (GHZ):           1.9255868           1.5394236           0.9269771
 Standard basis: 6-311++G(d,p) (5D, 7F)
 There are   333 symmetry adapted cartesian basis functions of A   symmetry.
 There are   324 symmetry adapted basis functions of A   symmetry.
   324 basis functions,   486 primitive gaussians,   333 cartesian basis functions
    36 alpha electrons       36 beta electrons
       nuclear repulsion energy       499.6549532641 Hartrees.
 NAtoms=   27 NActive=   27 NUniq=   27 SFac= 1.00D+00 NAtFMM=   60 NAOKFM=F Big=F
 Integral buffers will be    131072 words long.
 Raffenetti 2 integral format.
 Two-electron integral symmetry is turned on.
 R6APFD:  NTU= -4 IXU= 1 FactS= 1.050
 Nuclear repulsion after empirical dispersion term =      499.6327625235 Hartrees.
 One-electron integrals computed using PRISM.
 NBasis=   324 RedAO= T EigKep=  4.75D-06  NBF=   324
 NBsUse=   324 1.00D-06 EigRej= -1.00D+00 NBFU=   324
 ExpMin= 3.60D-02 ExpMax= 4.56D+03 ExpMxC= 6.82D+02 IAcc=3 IRadAn=         5 AccDes= 0.00D+00
 Harris functional with IExCor= 1009 and IRadAn=       5 diagonalized for initial guess.
 HarFok:  IExCor= 1009 AccDes= 0.00D+00 IRadAn=         5 IDoV= 1 UseB2=F ITyADJ=14
 ICtDFT=  3500011 ScaDFX=  1.000000  1.000000  1.000000  1.000000
 FoFCou: FMM=F IPFlag=           0 FMFlag=      100000 FMFlg1=           0
         NFxFlg=           0 DoJE=T BraDBF=F KetDBF=T FulRan=T
         wScrn=  0.000000 ICntrl=       500 IOpCl=  0 I1Cent=   200000004 NGrid=           0
         NMat0=    1 NMatS0=      1 NMatT0=    0 NMatD0=    1 NMtDS0=    0 NMtDT0=    0
 Petite list used in FoFCou.
 Requested convergence on RMS density matrix=1.00D-08 within  32 cycles.
 Requested convergence on MAX density matrix=1.00D-06.
 Requested convergence on             energy=1.00D-06.
 No special actions if energy rises.
 SCF Done:  E(RM08HX) =  -353.857042122     A.U. after   12 cycles
            NFock= 12  Conv=0.79D-08     -V/T= 2.0061
 QCSCF skips out because SCF is already converged.

 **********************************************************************

            Population analysis using the SCF Density.

 **********************************************************************

 Orbital symmetries:
       Occupied  (A) (A) (A) (A) (A) (A) (A) (A) (A) (A) (A) (A)
                 (A) (A) (A) (A) (A) (A) (A) (A) (A) (A) (A) (A)
                 (A) (A) (A) (A) (A) (A) (A) (A) (A) (A) (A) (A)
       Virtual   (A) (A) (A) (A) (A) (A) (A) (A) (A) (A) (A) (A)
                 (A) (A) (A) (A) (A) (A) (A) (A) (A) (A) (A) (A)
                 (A) (A) (A) (A) (A) (A) (A) (A) (A) (A) (A) (A)
                 (A) (A) (A) (A) (A) (A) (A) (A) (A) (A) (A) (A)
                 (A) (A) (A) (A) (A) (A) (A) (A) (A) (A) (A) (A)
                 (A) (A) (A) (A) (A) (A) (A) (A) (A) (A) (A) (A)
                 (A) (A) (A) (A) (A) (A) (A) (A) (A) (A) (A) (A)
                 (A) (A) (A) (A) (A) (A) (A) (A) (A) (A) (A) (A)
                 (A) (A) (A) (A) (A) (A) (A) (A) (A) (A) (A) (A)
                 (A) (A) (A) (A) (A) (A) (A) (A) (A) (A) (A) (A)
                 (A) (A) (A) (A) (A) (A) (A) (A) (A) (A) (A) (A)
                 (A) (A) (A) (A) (A) (A) (A) (A) (A) (A) (A) (A)
                 (A) (A) (A) (A) (A) (A) (A) (A) (A) (A) (A) (A)
                 (A) (A) (A) (A) (A) (A) (A) (A) (A) (A) (A) (A)
                 (A) (A) (A) (A) (A) (A) (A) (A) (A) (A) (A) (A)
                 (A) (A) (A) (A) (A) (A) (A) (A) (A) (A) (A) (A)
                 (A) (A) (A) (A) (A) (A) (A) (A) (A) (A) (A) (A)
                 (A) (A) (A) (A) (A) (A) (A) (A) (A) (A) (A) (A)
                 (A) (A) (A) (A) (A) (A) (A) (A) (A) (A) (A) (A)
                 (A) (A) (A) (A) (A) (A) (A) (A) (A) (A) (A) (A)
                 (A) (A) (A) (A) (A) (A) (A) (A) (A) (A) (A) (A)
                 (A) (A) (A) (A) (A) (A) (A) (A) (A) (A) (A) (A)
                 (A) (A) (A) (A) (A) (A) (A) (A) (A) (A) (A) (A)
                 (A) (A) (A) (A) (A) (A) (A) (A) (A) (A) (A) (A)
 The electronic state is 1-A.
 Alpha  occ. eigenvalues --  -10.52877 -10.52690 -10.52686 -10.51499 -10.51490
 Alpha  occ. eigenvalues --  -10.51416 -10.51004 -10.50999 -10.50998  -0.95048
 Alpha  occ. eigenvalues --   -0.87747  -0.86880  -0.80337  -0.76394  -0.73990
 Alpha  occ. eigenvalues --   -0.66430  -0.65616  -0.63350  -0.53128  -0.53015
 Alpha  occ. eigenvalues --   -0.52274  -0.51244  -0.49062  -0.47492  -0.45599
 Alpha  occ. eigenvalues --   -0.45114  -0.43500  -0.42754  -0.42388  -0.42117
 Alpha  occ. eigenvalues --   -0.39347  -0.39043  -0.38639  -0.37255  -0.34664
 Alpha  occ. eigenvalues --   -0.34322
 Alpha virt. eigenvalues --   -0.02523  -0.01729  -0.01520  -0.01412   0.00600
 Alpha virt. eigenvalues --    0.00718   0.01096   0.01220   0.01261   0.03402
 Alpha virt. eigenvalues --    0.03565   0.03974   0.04239   0.04474   0.04564
 Alpha virt. eigenvalues --    0.04913   0.06739   0.07304   0.08277   0.09080
 Alpha virt. eigenvalues --    0.09256   0.10170   0.10629   0.10810   0.10928
 Alpha virt. eigenvalues --    0.11477   0.11874   0.12152   0.12219   0.13012
 Alpha virt. eigenvalues --    0.13200   0.13575   0.13811   0.14349   0.14740
 Alpha virt. eigenvalues --    0.14744   0.15451   0.15853   0.16110   0.16637
 Alpha virt. eigenvalues --    0.16756   0.17116   0.17395   0.17635   0.18147
 Alpha virt. eigenvalues --    0.18576   0.19171   0.19270   0.19751   0.21143
 Alpha virt. eigenvalues --    0.21348   0.21620   0.22182   0.22863   0.23697
 Alpha virt. eigenvalues --    0.24178   0.24467   0.25597   0.25856   0.26760
 Alpha virt. eigenvalues --    0.28037   0.28209   0.28222   0.28633   0.29725
 Alpha virt. eigenvalues --    0.30042   0.31362   0.31685   0.32467   0.33200
 Alpha virt. eigenvalues --    0.34119   0.35771   0.35870   0.35963   0.37075
 Alpha virt. eigenvalues --    0.37833   0.38248   0.38307   0.39606   0.40707
 Alpha virt. eigenvalues --    0.45459   0.48243   0.48640   0.49577   0.49675
 Alpha virt. eigenvalues --    0.50454   0.51028   0.52658   0.54223   0.54815
 Alpha virt. eigenvalues --    0.56709   0.58124   0.60727   0.61226   0.63263
 Alpha virt. eigenvalues --    0.64403   0.66021   0.66779   0.67078   0.68086
 Alpha virt. eigenvalues --    0.69353   0.70105   0.70819   0.71204   0.72239
 Alpha virt. eigenvalues --    0.72729   0.73602   0.74144   0.74414   0.75888
 Alpha virt. eigenvalues --    0.76441   0.76992   0.77824   0.78227   0.79572
 Alpha virt. eigenvalues --    0.80331   0.80350   0.80686   0.81720   0.81893
 Alpha virt. eigenvalues --    0.82036   0.83904   0.84212   0.85650   0.93488
 Alpha virt. eigenvalues --    0.95677   0.96395   0.98826   1.00127   1.01574
 Alpha virt. eigenvalues --    1.02125   1.04428   1.10401   1.10980   1.14066
 Alpha virt. eigenvalues --    1.18443   1.21038   1.22647   1.23320   1.24429
 Alpha virt. eigenvalues --    1.26939   1.28129   1.38714   1.40306   1.41877
 Alpha virt. eigenvalues --    1.43423   1.46460   1.48199   1.51566   1.51795
 Alpha virt. eigenvalues --    1.54057   1.55929   1.57232   1.58167   1.59251
 Alpha virt. eigenvalues --    1.60313   1.61218   1.62265   1.62459   1.63530
 Alpha virt. eigenvalues --    1.63641   1.63836   1.64634   1.65348   1.67327
 Alpha virt. eigenvalues --    1.67552   1.67583   1.68447   1.68661   1.69673
 Alpha virt. eigenvalues --    1.72524   1.73517   1.75002   1.76233   1.77497
 Alpha virt. eigenvalues --    1.77830   1.80111   1.81306   1.83676   1.84111
 Alpha virt. eigenvalues --    1.85126   1.87484   1.88879   1.93210   1.93435
 Alpha virt. eigenvalues --    1.95260   1.97391   1.98912   1.99290   2.01820
 Alpha virt. eigenvalues --    2.05138   2.06633   2.08283   2.10694   2.10785
 Alpha virt. eigenvalues --    2.12094   2.16646   2.19887   2.20890   2.23520
 Alpha virt. eigenvalues --    2.24456   2.25948   2.29604   2.29637   2.32099
 Alpha virt. eigenvalues --    2.32569   2.36620   2.39977   2.40628   2.44383
 Alpha virt. eigenvalues --    2.45342   2.46214   2.47337   2.48993   2.51527
 Alpha virt. eigenvalues --    2.53114   2.53854   2.54518   2.55527   2.56484
 Alpha virt. eigenvalues --    2.57318   2.58404   2.59701   2.61694   2.61934
 Alpha virt. eigenvalues --    2.63635   2.63859   2.64484   2.67047   2.68350
 Alpha virt. eigenvalues --    2.70073   2.70293   2.71629   2.74453   2.76155
 Alpha virt. eigenvalues --    2.76642   2.79106   2.79178   2.81016   2.81204
 Alpha virt. eigenvalues --    2.82778   2.85897   2.86075   2.87703   2.88893
 Alpha virt. eigenvalues --    2.92106   2.97402   2.98366   3.01005   3.03642
 Alpha virt. eigenvalues --    3.05840   3.07737   3.10863   3.18767   3.19291
 Alpha virt. eigenvalues --    3.23877   3.31169   3.37064   3.48915   3.53549
 Alpha virt. eigenvalues --    3.63412   3.79825   3.82426   3.83846   3.85329
 Alpha virt. eigenvalues --    3.86313   3.87099   3.87610   3.88517   3.93285
 Alpha virt. eigenvalues --    4.02435   4.09021   4.18695   4.25829   4.28855
 Alpha virt. eigenvalues --    4.40376   4.42339   4.42886   4.46924  23.88212
 Alpha virt. eigenvalues --   23.93358  23.93733  23.99174  24.01255  24.02001
 Alpha virt. eigenvalues --   24.04990  24.05901  24.05905
          Condensed to atoms (all electrons):
               1          2          3          4          5          6
     1  C   15.489346  -4.937511  -4.937275  -0.281274  -0.282277   0.729527
     2  C   -4.937511  11.771453   0.343201  -1.301456   0.573458  -0.223265
     3  C   -4.937275   0.343201  11.770749   0.573737  -1.299978  -0.223703
     4  C   -0.281274  -1.301456   0.573737   8.065822  -0.247499  -0.805490
     5  C   -0.282277   0.573458  -1.299978  -0.247499   8.064855  -0.805193
     6  C    0.729527  -0.223265  -0.223703  -0.805490  -0.805193   7.480593
     7  C   -0.175930  -0.176038  -0.176060  -0.037287  -0.037385  -0.060598
     8  C    0.292364  -0.532508  -0.381759   0.000212   0.013606  -0.135048
     9  C    0.292065  -0.381842  -0.533126   0.013785   0.000458  -0.135141
    10  H    0.707148  -0.083039  -0.083157  -0.095501  -0.095502   0.059533
    11  H   -0.099968   0.761941  -0.113001  -0.161657   0.005617   0.012182
    12  H   -0.099933  -0.113081   0.761867   0.005654  -0.161464   0.012079
    13  H   -0.169143   0.157132   0.008506   0.451128  -0.032700  -0.029039
    14  H    0.017557  -0.150880   0.045825   0.529431  -0.003536  -0.081034
    15  H    0.017531   0.045834  -0.150893  -0.003571   0.529386  -0.080967
    16  H   -0.169160   0.008521   0.157065  -0.032665   0.451241  -0.029140
    17  H   -0.067758   0.007237   0.007185  -0.086360  -0.086278   0.609693
    18  H    0.059980  -0.033815  -0.033751  -0.056515  -0.056571   0.436717
    19  H    0.262809  -0.094749  -0.094736  -0.032426  -0.032430   0.023416
    20  H   -0.165890   0.045285  -0.005236   0.002760   0.029744  -0.010820
    21  H   -0.166129  -0.005134   0.045351   0.029761   0.002758  -0.010827
    22  H    0.088347  -0.156063  -0.016575  -0.001769   0.010031  -0.007432
    23  H   -0.076391  -0.094639   0.046606   0.059288  -0.009745  -0.007955
    24  H   -0.079490   0.224637  -0.024449  -0.095464  -0.000610   0.009960
    25  H   -0.076499   0.046621  -0.094557  -0.009753   0.059261  -0.007953
    26  H    0.088361  -0.016568  -0.156041   0.010036  -0.001833  -0.007422
    27  H   -0.079382  -0.024497   0.224544  -0.000615  -0.095373   0.009950
               7          8          9         10         11         12
     1  C   -0.175930   0.292364   0.292065   0.707148  -0.099968  -0.099933
     2  C   -0.176038  -0.532508  -0.381842  -0.083039   0.761941  -0.113081
     3  C   -0.176060  -0.381759  -0.533126  -0.083157  -0.113001   0.761867
     4  C   -0.037287   0.000212   0.013785  -0.095501  -0.161657   0.005654
     5  C   -0.037385   0.013606   0.000458  -0.095502   0.005617  -0.161464
     6  C   -0.060598  -0.135048  -0.135141   0.059533   0.012182   0.012079
     7  C    6.216966   0.169280   0.169266  -0.065996  -0.046109  -0.046114
     8  C    0.169280   6.462660  -0.036379  -0.034170  -0.064669  -0.013064
     9  C    0.169266  -0.036379   6.463701  -0.034186  -0.013063  -0.064630
    10  H   -0.065996  -0.034170  -0.034186   0.435674   0.010911   0.010896
    11  H   -0.046109  -0.064669  -0.013063   0.010911   0.449523  -0.004694
    12  H   -0.046114  -0.013064  -0.064630   0.010896  -0.004694   0.449496
    13  H   -0.009523  -0.018830  -0.003873   0.002283   0.011805  -0.000434
    14  H   -0.002963  -0.010994  -0.005395  -0.003186  -0.014052   0.001686
    15  H   -0.002966  -0.005392  -0.010965  -0.003185   0.001686  -0.014044
    16  H   -0.009525  -0.003880  -0.018774   0.002263  -0.000434   0.011800
    17  H   -0.001940  -0.006863  -0.006848  -0.000389   0.003267   0.003260
    18  H   -0.002916   0.003597   0.003579   0.000498  -0.002308  -0.002304
    19  H    0.354733  -0.013075  -0.013113   0.012242   0.012852   0.012844
    20  H    0.439086  -0.000843   0.030506  -0.014039  -0.006572  -0.000055
    21  H    0.439139   0.030490  -0.000846  -0.014043  -0.000064  -0.006572
    22  H    0.007494   0.430481   0.001684  -0.003090  -0.015625  -0.000633
    23  H    0.020324   0.427065  -0.001210   0.000583  -0.021922   0.002675
    24  H   -0.019443   0.357462  -0.004042   0.006705   0.016062  -0.000615
    25  H    0.020372  -0.001198   0.427036   0.000584   0.002672  -0.021917
    26  H    0.007509   0.001687   0.430471  -0.003090  -0.000635  -0.015621
    27  H   -0.019483  -0.004049   0.357450   0.006698  -0.000613   0.016058
              13         14         15         16         17         18
     1  C   -0.169143   0.017557   0.017531  -0.169160  -0.067758   0.059980
     2  C    0.157132  -0.150880   0.045834   0.008521   0.007237  -0.033815
     3  C    0.008506   0.045825  -0.150893   0.157065   0.007185  -0.033751
     4  C    0.451128   0.529431  -0.003571  -0.032665  -0.086360  -0.056515
     5  C   -0.032700  -0.003536   0.529386   0.451241  -0.086278  -0.056571
     6  C   -0.029039  -0.081034  -0.080967  -0.029140   0.609693   0.436717
     7  C   -0.009523  -0.002963  -0.002966  -0.009525  -0.001940  -0.002916
     8  C   -0.018830  -0.010994  -0.005392  -0.003880  -0.006863   0.003597
     9  C   -0.003873  -0.005395  -0.010965  -0.018774  -0.006848   0.003579
    10  H    0.002283  -0.003186  -0.003185   0.002263  -0.000389   0.000498
    11  H    0.011805  -0.014052   0.001686  -0.000434   0.003267  -0.002308
    12  H   -0.000434   0.001686  -0.014044   0.011800   0.003260  -0.002304
    13  H    0.429752  -0.021054  -0.000210  -0.001152   0.001935  -0.005075
    14  H   -0.021054   0.474462  -0.000321  -0.000211  -0.003312  -0.009717
    15  H   -0.000210  -0.000321   0.474432  -0.021044  -0.003303  -0.009719
    16  H   -0.001152  -0.000211  -0.021044   0.429746   0.001933  -0.005065
    17  H    0.001935  -0.003312  -0.003303   0.001933   0.424017  -0.008336
    18  H   -0.005075  -0.009717  -0.009719  -0.005065  -0.008336   0.456204
    19  H    0.000236  -0.000359  -0.000359   0.000236   0.000380  -0.000025
    20  H   -0.000918   0.000495   0.000005   0.001619  -0.000220  -0.000086
    21  H    0.001618   0.000005   0.000495  -0.000917  -0.000219  -0.000087
    22  H   -0.001070   0.006126  -0.000127  -0.000504  -0.000273   0.000243
    23  H   -0.007033   0.004577  -0.000515   0.000702  -0.000832   0.000445
    24  H    0.012255  -0.004848   0.000523  -0.000430   0.001178  -0.000771
    25  H    0.000701  -0.000515   0.004576  -0.007031  -0.000832   0.000444
    26  H   -0.000505  -0.000127   0.006120  -0.001061  -0.000273   0.000243
    27  H   -0.000430   0.000522  -0.004848   0.012251   0.001177  -0.000769
              19         20         21         22         23         24
     1  C    0.262809  -0.165890  -0.166129   0.088347  -0.076391  -0.079490
     2  C   -0.094749   0.045285  -0.005134  -0.156063  -0.094639   0.224637
     3  C   -0.094736  -0.005236   0.045351  -0.016575   0.046606  -0.024449
     4  C   -0.032426   0.002760   0.029761  -0.001769   0.059288  -0.095464
     5  C   -0.032430   0.029744   0.002758   0.010031  -0.009745  -0.000610
     6  C    0.023416  -0.010820  -0.010827  -0.007432  -0.007955   0.009960
     7  C    0.354733   0.439086   0.439139   0.007494   0.020324  -0.019443
     8  C   -0.013075  -0.000843   0.030490   0.430481   0.427065   0.357462
     9  C   -0.013113   0.030506  -0.000846   0.001684  -0.001210  -0.004042
    10  H    0.012242  -0.014039  -0.014043  -0.003090   0.000583   0.006705
    11  H    0.012852  -0.006572  -0.000064  -0.015625  -0.021922   0.016062
    12  H    0.012844  -0.000055  -0.006572  -0.000633   0.002675  -0.000615
    13  H    0.000236  -0.000918   0.001618  -0.001070  -0.007033   0.012255
    14  H   -0.000359   0.000495   0.000005   0.006126   0.004577  -0.004848
    15  H   -0.000359   0.000005   0.000495  -0.000127  -0.000515   0.000523
    16  H    0.000236   0.001619  -0.000917  -0.000504   0.000702  -0.000430
    17  H    0.000380  -0.000220  -0.000219  -0.000273  -0.000832   0.001178
    18  H   -0.000025  -0.000086  -0.000087   0.000243   0.000445  -0.000771
    19  H    0.478173  -0.044582  -0.044600  -0.002826  -0.008031   0.006069
    20  H   -0.044582   0.549642  -0.037903   0.001046   0.003868  -0.004391
    21  H   -0.044600  -0.037903   0.549698   0.001808   0.006042  -0.007662
    22  H   -0.002826   0.001046   0.001808   0.520216  -0.022134  -0.037447
    23  H   -0.008031   0.003868   0.006042  -0.022134   0.545022  -0.053506
    24  H    0.006069  -0.004391  -0.007662  -0.037447  -0.053506   0.483825
    25  H   -0.008044   0.006034   0.003870   0.000031  -0.000485   0.000094
    26  H   -0.002826   0.001810   0.001046   0.000049   0.000031  -0.000329
    27  H    0.006074  -0.007668  -0.004395  -0.000329   0.000094   0.000876
              25         26         27
     1  C   -0.076499   0.088361  -0.079382
     2  C    0.046621  -0.016568  -0.024497
     3  C   -0.094557  -0.156041   0.224544
     4  C   -0.009753   0.010036  -0.000615
     5  C    0.059261  -0.001833  -0.095373
     6  C   -0.007953  -0.007422   0.009950
     7  C    0.020372   0.007509  -0.019483
     8  C   -0.001198   0.001687  -0.004049
     9  C    0.427036   0.430471   0.357450
    10  H    0.000584  -0.003090   0.006698
    11  H    0.002672  -0.000635  -0.000613
    12  H   -0.021917  -0.015621   0.016058
    13  H    0.000701  -0.000505  -0.000430
    14  H   -0.000515  -0.000127   0.000522
    15  H    0.004576   0.006120  -0.004848
    16  H   -0.007031  -0.001061   0.012251
    17  H   -0.000832  -0.000273   0.001177
    18  H    0.000444   0.000243  -0.000769
    19  H   -0.008044  -0.002826   0.006074
    20  H    0.006034   0.001810  -0.007668
    21  H    0.003870   0.001046  -0.004395
    22  H    0.000031   0.000049  -0.000329
    23  H   -0.000485   0.000031   0.000094
    24  H    0.000094  -0.000329   0.000876
    25  H    0.545027  -0.022155  -0.053498
    26  H   -0.022155   0.520200  -0.037441
    27  H   -0.053498  -0.037441   0.483834
 Mulliken charges:
               1
     1  C   -0.181022
     2  C    0.339766
     3  C    0.339662
     4  C   -0.492315
     5  C   -0.492042
     6  C   -0.722624
     7  C   -0.953891
     8  C   -0.926184
     9  C   -0.926570
    10  H    0.276555
    11  H    0.276868
    12  H    0.276858
    13  H    0.223639
    14  H    0.231821
    15  H    0.231842
    16  H    0.223617
    17  H    0.212775
    18  H    0.265880
    19  H    0.222117
    20  H    0.187326
    21  H    0.187317
    22  H    0.198341
    23  H    0.187076
    24  H    0.213852
    25  H    0.187111
    26  H    0.198363
    27  H    0.213861
 Sum of Mulliken charges =  -0.00000
 Mulliken charges with hydrogens summed into heavy atoms:
               1
     1  C    0.095533
     2  C    0.616634
     3  C    0.616520
     4  C   -0.036855
     5  C   -0.036583
     6  C   -0.243969
     7  C   -0.357131
     8  C   -0.326914
     9  C   -0.327235
 Electronic spatial extent (au):  <R**2>=           1400.8464
 Charge=             -0.0000 electrons
 Dipole moment (field-independent basis, Debye):
    X=             -0.0001    Y=              0.0879    Z=             -0.0911  Tot=              0.1266
 Quadrupole moment (field-independent basis, Debye-Ang):
   XX=            -61.8783   YY=            -61.5100   ZZ=            -60.7080
   XY=             -0.0002   XZ=             -0.0000   YZ=             -0.0770
 Traceless Quadrupole moment (field-independent basis, Debye-Ang):
   XX=             -0.5129   YY=             -0.1446   ZZ=              0.6574
   XY=             -0.0002   XZ=             -0.0000   YZ=             -0.0770
 Octapole moment (field-independent basis, Debye-Ang**2):
  XXX=              0.0001  YYY=              1.3792  ZZZ=              0.2027  XYY=              0.0003
  XXY=              1.9488  XXZ=             -2.6372  XZZ=             -0.0008  YZZ=              0.1305
  YYZ=              0.2382  XYZ=             -0.0007
 Hexadecapole moment (field-independent basis, Debye-Ang**3):
 XXXX=          -1035.6881 YYYY=           -822.5642 ZZZZ=           -159.8122 XXXY=             -0.0015
 XXXZ=              0.0022 YYYX=              0.0044 YYYZ=              1.0577 ZZZX=             -0.0014
 ZZZY=              0.0546 XXYY=           -305.3373 XXZZ=           -200.5537 YYZZ=           -165.1514
 XXYZ=             -2.3669 YYXZ=             -0.0007 ZZXY=             -0.0031
 N-N= 4.996327625235D+02 E-N=-1.817264961237D+03  KE= 3.517000583546D+02
 R6APFD:  NTU= -4 IXU= 1 FactS= 1.050
 Calling FoFJK, ICntrl=      2127 FMM=F ISym2X=0 I1Cent= 0 IOpClX= 0 NMat=1 NMatS=1 NMatT=0.
 ***** Axes restored to original set *****
 -------------------------------------------------------------------
 Center     Atomic                   Forces (Hartrees/Bohr)
 Number     Number              X              Y              Z
 -------------------------------------------------------------------
      1        6          -0.000003090   -0.002444163   -0.010608933
      2        6           0.000245102   -0.001358800    0.009154949
      3        6          -0.000220249   -0.001441799    0.009129105
      4        6          -0.002090749    0.001635090   -0.005413593
      5        6           0.002094340    0.001693663   -0.005372757
      6        6           0.000003572   -0.003038265    0.003422510
      7        6          -0.000019035   -0.002043533    0.003949155
      8        6          -0.002652035    0.002815595   -0.004317884
      9        6           0.002575234    0.002902628   -0.004298182
     10        1           0.000004589   -0.003355061    0.005045453
     11        1          -0.003190908    0.000179366   -0.004552148
     12        1           0.003193808    0.000178109   -0.004561563
     13        1           0.000334362    0.001949760    0.003867678
     14        1           0.003713935    0.001069658    0.000555105
     15        1          -0.003731565    0.001065588    0.000541883
     16        1          -0.000325316    0.001944324    0.003829607
     17        1          -0.000000052    0.000519995   -0.003393596
     18        1           0.000000561   -0.003096825   -0.001035724
     19        1          -0.000004715   -0.000518690   -0.002886287
     20        1          -0.002099679   -0.000005748   -0.000381221
     21        1           0.002142743    0.000029782   -0.000362897
     22        1           0.000429397   -0.001721629    0.000260512
     23        1           0.000930919    0.002273030    0.000867904
     24        1          -0.000723393    0.000143228    0.002709622
     25        1          -0.000909297    0.002209991    0.000899619
     26        1          -0.000420359   -0.001729777    0.000264175
     27        1           0.000721879    0.000144483    0.002687505
 -------------------------------------------------------------------
 Cartesian Forces:  Max     0.010608933 RMS     0.002965834

 GradGradGradGradGradGradGradGradGradGradGradGradGradGradGradGradGradGrad
 Berny optimization.
 FormGI is forming the generalized inverse of G from B-inverse, IUseBI=4.
 Internal  Forces:  Max     0.008124537 RMS     0.001804787
 Search for a local minimum.
 Step number   1 out of a maximum of  162
 All quantities printed in internal units (Hartrees-Bohrs-Radians)
 Mixed Optimization -- RFO/linear search
 Second derivative matrix not updated -- first step.
 ITU=  0
     Eigenvalues ---    0.00293   0.00329   0.00331   0.00490   0.00500
     Eigenvalues ---    0.00693   0.01885   0.01899   0.03472   0.03576
     Eigenvalues ---    0.03582   0.04155   0.04396   0.04602   0.04689
     Eigenvalues ---    0.04820   0.04880   0.04906   0.05360   0.05401
     Eigenvalues ---    0.05402   0.05422   0.05523   0.05523   0.05566
     Eigenvalues ---    0.05574   0.05996   0.07065   0.08140   0.08220
     Eigenvalues ---    0.08221   0.09168   0.10189   0.12301   0.14144
     Eigenvalues ---    0.16000   0.16000   0.16000   0.16000   0.16000
     Eigenvalues ---    0.16000   0.16000   0.16000   0.16000   0.16503
     Eigenvalues ---    0.16611   0.16947   0.19481   0.26098   0.26238
     Eigenvalues ---    0.27060   0.28798   0.28900   0.29145   0.29157
     Eigenvalues ---    0.29443   0.29568   0.33767   0.33809   0.33810
     Eigenvalues ---    0.33939   0.33946   0.34028   0.34042   0.34046
     Eigenvalues ---    0.34142   0.34171   0.34172   0.34232   0.34236
     Eigenvalues ---    0.34238   0.34373   0.34387   0.34388   0.34398
 RFO step:  Lambda=-3.37830144D-03 EMin= 2.93245258D-03
 Linear search not attempted -- first point.
 Iteration  1 RMS(Cart)=  0.03432514 RMS(Int)=  0.00047070
 Iteration  2 RMS(Cart)=  0.00059255 RMS(Int)=  0.00012504
 Iteration  3 RMS(Cart)=  0.00000017 RMS(Int)=  0.00012504
 Variable       Old X    -DE/DX   Delta X   Delta X   Delta X     New X
                                 (Linear)    (Quad)   (Total)
    R1        2.93954  -0.00812   0.00000  -0.03253  -0.03262   2.90693
    R2        2.93945  -0.00809   0.00000  -0.03241  -0.03250   2.90695
    R3        2.90212  -0.00251   0.00000  -0.00859  -0.00859   2.89353
    R4        2.07725   0.00499   0.00000   0.01464   0.01464   2.09189
    R5        2.90417  -0.00218   0.00000  -0.00742  -0.00742   2.89675
    R6        2.89702  -0.00038   0.00000  -0.00128  -0.00128   2.89574
    R7        2.07654   0.00446   0.00000   0.01307   0.01307   2.08961
    R8        2.90434  -0.00222   0.00000  -0.00757  -0.00756   2.89678
    R9        2.89677  -0.00032   0.00000  -0.00108  -0.00108   2.89568
   R10        2.07652   0.00447   0.00000   0.01310   0.01310   2.08962
   R11        2.87460   0.00433   0.00000   0.01687   0.01696   2.89156
   R12        2.07421   0.00376   0.00000   0.01098   0.01098   2.08519
   R13        2.07259   0.00227   0.00000   0.00660   0.00660   2.07918
   R14        2.87457   0.00434   0.00000   0.01689   0.01698   2.89155
   R15        2.07252   0.00229   0.00000   0.00666   0.00666   2.07917
   R16        2.07433   0.00373   0.00000   0.01087   0.01087   2.08520
   R17        2.07282   0.00336   0.00000   0.00979   0.00979   2.08261
   R18        2.07091   0.00257   0.00000   0.00744   0.00744   2.07835
   R19        2.06930   0.00286   0.00000   0.00826   0.00826   2.07756
   R20        2.06680   0.00154   0.00000   0.00445   0.00445   2.07124
   R21        2.06664   0.00160   0.00000   0.00461   0.00461   2.07125
   R22        2.07040   0.00124   0.00000   0.00359   0.00359   2.07400
   R23        2.06683   0.00183   0.00000   0.00527   0.00527   2.07209
   R24        2.06933   0.00272   0.00000   0.00787   0.00787   2.07721
   R25        2.06705   0.00176   0.00000   0.00506   0.00506   2.07210
   R26        2.07042   0.00124   0.00000   0.00358   0.00358   2.07400
   R27        2.06941   0.00270   0.00000   0.00781   0.00781   2.07722
    A1        1.93156   0.00299   0.00000   0.00303   0.00264   1.93420
    A2        1.94146  -0.00158   0.00000  -0.00392  -0.00378   1.93768
    A3        1.88638  -0.00097   0.00000  -0.00933  -0.00924   1.87713
    A4        1.94134  -0.00156   0.00000  -0.00376  -0.00362   1.93773
    A5        1.88632  -0.00097   0.00000  -0.00926  -0.00918   1.87714
    A6        1.87415   0.00208   0.00000   0.02346   0.02339   1.89753
    A7        1.93986   0.00062   0.00000  -0.00809  -0.00810   1.93176
    A8        1.97045  -0.00284   0.00000  -0.01766  -0.01741   1.95304
    A9        1.89208  -0.00040   0.00000  -0.01629  -0.01625   1.87584
   A10        1.89830   0.00188   0.00000   0.01760   0.01740   1.91571
   A11        1.88308  -0.00052   0.00000   0.00501   0.00464   1.88771
   A12        1.87710   0.00135   0.00000   0.02114   0.02084   1.89794
   A13        1.93977   0.00063   0.00000  -0.00807  -0.00809   1.93168
   A14        1.97053  -0.00284   0.00000  -0.01767  -0.01742   1.95311
   A15        1.89208  -0.00040   0.00000  -0.01629  -0.01624   1.87584
   A16        1.89842   0.00187   0.00000   0.01750   0.01730   1.91572
   A17        1.88300  -0.00052   0.00000   0.00502   0.00465   1.88765
   A18        1.87706   0.00135   0.00000   0.02122   0.02092   1.89798
   A19        1.95295  -0.00010   0.00000   0.00062   0.00066   1.95361
   A20        1.91722  -0.00140   0.00000  -0.02295  -0.02298   1.89424
   A21        1.91888  -0.00130   0.00000  -0.00905  -0.00930   1.90957
   A22        1.90852   0.00075   0.00000   0.00434   0.00411   1.91263
   A23        1.90065   0.00219   0.00000   0.02972   0.02978   1.93042
   A24        1.86338  -0.00011   0.00000  -0.00234  -0.00268   1.86070
   A25        1.95281  -0.00009   0.00000   0.00070   0.00074   1.95355
   A26        1.91899  -0.00131   0.00000  -0.00914  -0.00939   1.90960
   A27        1.91713  -0.00140   0.00000  -0.02289  -0.02292   1.89421
   A28        1.90068   0.00219   0.00000   0.02973   0.02979   1.93046
   A29        1.90864   0.00074   0.00000   0.00425   0.00402   1.91266
   A30        1.86336  -0.00010   0.00000  -0.00231  -0.00265   1.86070
   A31        1.93956  -0.00361   0.00000  -0.01076  -0.01111   1.92845
   A32        1.91460   0.00065   0.00000  -0.00838  -0.00843   1.90617
   A33        1.91360   0.00168   0.00000   0.01620   0.01623   1.92983
   A34        1.91455   0.00065   0.00000  -0.00837  -0.00842   1.90613
   A35        1.91363   0.00168   0.00000   0.01620   0.01623   1.92986
   A36        1.86648  -0.00093   0.00000  -0.00455  -0.00449   1.86199
   A37        1.93895  -0.00111   0.00000  -0.01140  -0.01143   1.92751
   A38        1.94833  -0.00024   0.00000   0.00083   0.00079   1.94912
   A39        1.94824  -0.00022   0.00000   0.00093   0.00090   1.94914
   A40        1.88854   0.00024   0.00000  -0.00283  -0.00286   1.88568
   A41        1.88849   0.00024   0.00000  -0.00277  -0.00281   1.88568
   A42        1.84751   0.00123   0.00000   0.01627   0.01623   1.86374
   A43        1.93394  -0.00117   0.00000  -0.00642  -0.00653   1.92741
   A44        1.94691   0.00270   0.00000   0.02024   0.02024   1.96716
   A45        1.94126  -0.00152   0.00000  -0.01375  -0.01378   1.92748
   A46        1.86342   0.00020   0.00000   0.00979   0.00973   1.87315
   A47        1.88392   0.00059   0.00000  -0.00344  -0.00359   1.88034
   A48        1.89138  -0.00079   0.00000  -0.00620  -0.00612   1.88526
   A49        1.94698   0.00269   0.00000   0.02018   0.02019   1.96717
   A50        1.93403  -0.00118   0.00000  -0.00647  -0.00659   1.92745
   A51        1.94132  -0.00151   0.00000  -0.01373  -0.01376   1.92755
   A52        1.86324   0.00022   0.00000   0.00991   0.00984   1.87308
   A53        1.89136  -0.00079   0.00000  -0.00622  -0.00614   1.88522
   A54        1.88390   0.00060   0.00000  -0.00343  -0.00358   1.88032
    D1       -0.94006  -0.00025   0.00000  -0.03794  -0.03789  -0.97795
    D2       -3.07866  -0.00110   0.00000  -0.04204  -0.04204  -3.12069
    D3        1.12673  -0.00077   0.00000  -0.04667  -0.04676   1.07998
    D4       -3.10748   0.00074   0.00000  -0.03246  -0.03242  -3.13990
    D5        1.03710  -0.00011   0.00000  -0.03656  -0.03656   1.00054
    D6       -1.04069   0.00022   0.00000  -0.04119  -0.04128  -1.08197
    D7        1.12238  -0.00029   0.00000  -0.05305  -0.05302   1.06936
    D8       -1.01622  -0.00114   0.00000  -0.05715  -0.05717  -1.07339
    D9       -3.09401  -0.00081   0.00000  -0.06179  -0.06189   3.12728
   D10        0.94024   0.00025   0.00000   0.03788   0.03783   0.97807
   D11        3.07899   0.00110   0.00000   0.04185   0.04184   3.12083
   D12       -1.12640   0.00077   0.00000   0.04658   0.04666  -1.07974
   D13        3.10773  -0.00075   0.00000   0.03231   0.03226   3.13999
   D14       -1.03671   0.00010   0.00000   0.03628   0.03628  -1.00043
   D15        1.04109  -0.00023   0.00000   0.04101   0.04110   1.08218
   D16       -1.12224   0.00029   0.00000   0.05303   0.05300  -1.06924
   D17        1.01652   0.00114   0.00000   0.05700   0.05701   1.07353
   D18        3.09431   0.00081   0.00000   0.06173   0.06183  -3.12704
   D19        1.08106   0.00080   0.00000  -0.00071  -0.00085   1.08020
   D20       -3.09242   0.00017   0.00000  -0.01165  -0.01179  -3.10421
   D21       -1.02852   0.00142   0.00000   0.01008   0.00994  -1.01858
   D22       -1.08082  -0.00079   0.00000   0.00095   0.00109  -1.07974
   D23        1.02888  -0.00142   0.00000  -0.00999  -0.00985   1.01904
   D24        3.09279  -0.00017   0.00000   0.01174   0.01188   3.10467
   D25       -3.14141  -0.00000   0.00000   0.00004   0.00003  -3.14138
   D26       -1.03170  -0.00063   0.00000  -0.01090  -0.01090  -1.04260
   D27        1.03220   0.00062   0.00000   0.01083   0.01083   1.04303
   D28        0.96684   0.00001   0.00000   0.01136   0.01121   0.97805
   D29       -1.15636   0.00010   0.00000   0.02137   0.02130  -1.13506
   D30        3.08119   0.00183   0.00000   0.04321   0.04301   3.12421
   D31       -3.13660  -0.00185   0.00000  -0.00415  -0.00424  -3.14083
   D32        1.02339  -0.00176   0.00000   0.00586   0.00585   1.02924
   D33       -1.02224  -0.00003   0.00000   0.02769   0.02756  -0.99468
   D34       -1.10537   0.00046   0.00000   0.03282   0.03277  -1.07260
   D35        3.05461   0.00055   0.00000   0.04283   0.04286   3.09748
   D36        1.00898   0.00228   0.00000   0.06466   0.06457   1.07356
   D37        3.03625  -0.00027   0.00000  -0.01264  -0.01260   3.02365
   D38       -1.17337   0.00098   0.00000   0.00861   0.00867  -1.16471
   D39        0.94059   0.00078   0.00000   0.00512   0.00508   0.94567
   D40        0.87459  -0.00048   0.00000  -0.00296  -0.00277   0.87181
   D41        2.94815   0.00076   0.00000   0.01829   0.01849   2.96664
   D42       -1.22108   0.00056   0.00000   0.01480   0.01490  -1.20617
   D43       -1.16047  -0.00158   0.00000  -0.02946  -0.02962  -1.19009
   D44        0.91309  -0.00033   0.00000  -0.00821  -0.00835   0.90474
   D45        3.02705  -0.00054   0.00000  -0.01170  -0.01194   3.01511
   D46       -0.96721  -0.00001   0.00000  -0.01124  -0.01109  -0.97830
   D47       -3.08159  -0.00183   0.00000  -0.04308  -0.04289  -3.12448
   D48        1.15598  -0.00010   0.00000  -0.02127  -0.02120   1.13478
   D49        3.13609   0.00185   0.00000   0.00436   0.00444   3.14053
   D50        1.02171   0.00003   0.00000  -0.02749  -0.02736   0.99435
   D51       -1.02390   0.00176   0.00000  -0.00568  -0.00567  -1.02957
   D52        1.10490  -0.00046   0.00000  -0.03267  -0.03262   1.07228
   D53       -1.00948  -0.00228   0.00000  -0.06452  -0.06442  -1.07390
   D54       -3.05509  -0.00055   0.00000  -0.04270  -0.04273  -3.09782
   D55        1.17351  -0.00098   0.00000  -0.00860  -0.00866   1.16485
   D56       -3.03624   0.00027   0.00000   0.01272   0.01268  -3.02356
   D57       -0.94051  -0.00078   0.00000  -0.00506  -0.00502  -0.94553
   D58       -2.94798  -0.00076   0.00000  -0.01835  -0.01855  -2.96653
   D59       -0.87454   0.00049   0.00000   0.00297   0.00279  -0.87175
   D60        1.22119  -0.00056   0.00000  -0.01481  -0.01491   1.20628
   D61       -0.91297   0.00033   0.00000   0.00816   0.00830  -0.90467
   D62        1.16047   0.00158   0.00000   0.02948   0.02964   1.19011
   D63       -3.02699   0.00054   0.00000   0.01170   0.01194  -3.01505
   D64       -0.98198   0.00096   0.00000   0.01654   0.01649  -0.96548
   D65        1.13816  -0.00016   0.00000  -0.00668  -0.00659   1.13157
   D66       -3.10028   0.00008   0.00000  -0.00762  -0.00755  -3.10784
   D67        1.14622  -0.00036   0.00000  -0.00909  -0.00927   1.13695
   D68       -3.01682  -0.00148   0.00000  -0.03231  -0.03235  -3.04918
   D69       -0.97208  -0.00124   0.00000  -0.03325  -0.03332  -1.00540
   D70       -3.10684   0.00115   0.00000   0.00720   0.00706  -3.09978
   D71       -0.98671   0.00004   0.00000  -0.01602  -0.01602  -1.00272
   D72        1.05803   0.00028   0.00000  -0.01697  -0.01698   1.04105
   D73        0.98213  -0.00095   0.00000  -0.01657  -0.01652   0.96561
   D74       -1.13804   0.00016   0.00000   0.00666   0.00657  -1.13147
   D75        3.10042  -0.00008   0.00000   0.00759   0.00753   3.10794
   D76        3.10707  -0.00116   0.00000  -0.00728  -0.00715   3.09992
   D77        0.98690  -0.00004   0.00000   0.01595   0.01594   1.00284
   D78       -1.05783  -0.00028   0.00000   0.01688   0.01690  -1.04093
   D79       -1.14594   0.00036   0.00000   0.00900   0.00918  -1.13676
   D80        3.01708   0.00148   0.00000   0.03223   0.03227   3.04935
   D81        0.97235   0.00124   0.00000   0.03316   0.03323   1.00557
         Item               Value     Threshold  Converged?
 Maximum Force            0.008125     0.000450     NO 
 RMS     Force            0.001805     0.000300     NO 
 Maximum Displacement     0.156669     0.001800     NO 
 RMS     Displacement     0.034370     0.001200     NO 
 Predicted change in Energy=-1.832581D-03
 GradGradGradGradGradGradGradGradGradGradGradGradGradGradGradGradGradGrad

                          Input orientation:                          
 ---------------------------------------------------------------------
 Center     Atomic      Atomic             Coordinates (Angstroms)
 Number     Number       Type             X           Y           Z
 ---------------------------------------------------------------------
      1          6           0       -0.000098    0.813347    0.216486
      2          6           0        1.266360    0.087562   -0.268921
      3          6           0       -1.266403    0.087244   -0.268890
      4          6           0        1.257352   -1.377379    0.182330
      5          6           0       -1.257007   -1.377650    0.182557
      6          6           0        0.000205   -2.112418   -0.287411
      7          6           0       -0.000245    2.277313   -0.232232
      8          6           0        2.543775    0.774251    0.225844
      9          6           0       -2.544009    0.773648    0.225686
     10          1           0       -0.000075    0.780894    1.322990
     11          1           0        1.257515    0.107655   -1.374478
     12          1           0       -1.257472    0.107123   -1.374456
     13          1           0        1.312243   -1.405327    1.284044
     14          1           0        2.162072   -1.880402   -0.190515
     15          1           0       -2.161714   -1.880914   -0.189981
     16          1           0       -1.311615   -1.405425    1.284294
     17          1           0        0.000089   -2.163750   -1.388287
     18          1           0        0.000369   -3.150085    0.077064
     19          1           0       -0.000494    2.342470   -1.329700
     20          1           0       -0.880028    2.814726    0.139929
     21          1           0        0.879662    2.814805    0.139532
     22          1           0        3.425720    0.173614   -0.030944
     23          1           0        2.686977    1.768793   -0.213131
     24          1           0        2.521037    0.885264    1.319197
     25          1           0       -2.687520    1.768051   -0.213521
     26          1           0       -3.425802    0.172737   -0.031002
     27          1           0       -2.521393    0.884954    1.319017
 ---------------------------------------------------------------------
                    Distance matrix (angstroms):
                    1          2          3          4          5
     1  C    0.000000
     2  C    1.538279   0.000000
     3  C    1.538292   2.532763   0.000000
     4  C    2.526188   1.532892   2.952636   0.000000
     5  C    2.526150   2.952636   1.532908   2.514359   0.000000
     6  C    2.968840   2.538385   2.538336   1.530149   1.530142
     7  C    1.531191   2.529950   2.530000   3.887183   3.887191
     8  C    2.544191   1.532359   3.903101   2.507247   4.367893
     9  C    2.544237   3.903109   1.532329   4.367968   2.507253
    10  H    1.106980   2.149127   2.149144   2.745974   2.745866
    11  H    2.147267   1.105775   2.755522   2.151505   3.309578
    12  H    2.147286   2.755417   1.105781   3.309331   2.151474
    13  H    2.790059   2.154651   3.359878   1.103435   2.795547
    14  H    3.478062   2.163638   3.953760   1.100256   3.475924
    15  H    3.478051   3.953836   2.163667   3.475942   1.100252
    16  H    2.789846   3.359679   2.154643   2.795480   1.103439
    17  H    3.382070   2.815107   2.814965   2.160076   2.160045
    18  H    3.965883   3.493536   3.493522   2.175678   2.175695
    19  H    2.174605   2.795493   2.795333   4.207812   4.207735
    20  H    2.187615   3.494506   2.784883   4.705735   4.209507
    21  H    2.187632   2.784641   3.494566   4.209380   4.705729
    22  H    3.493811   2.174138   4.698947   2.674488   4.937604
    23  H    2.884063   2.201773   4.296502   3.478306   5.060798
    24  H    2.752684   2.175468   4.183725   2.830003   4.548224
    25  H    2.884198   4.296543   2.201761   5.060874   3.478316
    26  H    3.493863   4.698962   2.174145   4.937642   2.674506
    27  H    2.752749   4.183833   2.175497   4.548530   2.830122
                    6          7          8          9         10
     6  C    0.000000
     7  C    4.390078   0.000000
     8  C    3.881499   2.990162   0.000000
     9  C    3.881452   2.990223   5.087784   0.000000
    10  H    3.311291   2.158237   2.770369   2.770511   0.000000
    11  H    2.773313   2.755740   2.158667   4.177996   3.051412
    12  H    2.773045   2.755907   4.177978   2.158677   3.051431
    13  H    2.165847   4.193275   2.717907   4.553979   2.550148
    14  H    2.176440   4.686572   2.714081   5.418894   3.748076
    15  H    2.176460   4.686639   5.418896   2.713969   3.747931
    16  H    2.165864   4.193102   4.553607   2.718052   2.549829
    17  H    1.102072   4.589063   4.208040   4.207808   4.002743
    18  H    1.099816   5.436204   4.678831   4.678849   4.123703
    19  H    4.575192   1.099400   3.369322   3.368960   3.078194
    20  H    5.023363   1.096054   3.986646   2.634803   2.512055
    21  H    5.023270   1.096058   2.634498   3.986887   2.512230
    22  H    4.126241   4.025334   1.097513   6.005295   3.733363
    23  H    4.721023   2.734981   1.096504   5.342854   3.248978
    24  H    4.233424   3.271330   1.099210   5.182945   2.523274
    25  H    4.720949   2.735168   5.342951   1.096511   3.249262
    26  H    4.126161   4.025441   6.005301   1.097516   3.733464
    27  H    4.233592   3.271273   5.182973   1.099215   2.523468
                   11         12         13         14         15
    11  H    0.000000
    12  H    2.514987   0.000000
    13  H    3.059387   3.994816   0.000000
    14  H    2.484425   4.128590   1.766983   0.000000
    15  H    4.128991   2.484537   3.803591   4.323786   0.000000
    16  H    3.994861   3.059360   2.623858   3.803573   1.766987
    17  H    2.596265   2.595865   3.072182   2.487793   2.487836
    18  H    3.781569   3.781333   2.494392   2.521241   2.521251
    19  H    2.564954   2.564912   4.754041   4.879250   4.879221
    20  H    3.767061   3.125211   4.891206   5.604266   4.878585
    21  H    3.124685   3.767100   4.393921   4.878368   5.604313
    22  H    2.551577   4.872550   2.947717   2.416868   5.955317
    23  H    2.480215   4.434918   3.769146   3.686823   6.068830
    24  H    3.075231   4.705146   2.590217   3.171277   5.644246
    25  H    4.434866   2.480219   5.320820   6.068796   3.686729
    26  H    4.872640   2.551632   5.164175   5.955264   2.416750
    27  H    4.705237   3.075274   4.465800   5.644531   3.171194
                   16         17         18         19         20
    16  H    0.000000
    17  H    3.072184   0.000000
    18  H    2.494503   1.766384   0.000000
    19  H    4.753811   4.506600   5.669845   0.000000
    20  H    4.393805   5.281597   6.029761   1.776630   0.000000
    21  H    4.891065   5.281466   6.029674   1.776630   1.759690
    22  H    5.163871   4.363553   4.774062   4.257893   5.054122
    23  H    5.320403   4.905634   5.612258   2.966198   3.733919
    24  H    4.465165   4.793968   4.917388   3.936778   4.084207
    25  H    3.769286   4.905341   5.612241   2.965792   2.118368
    26  H    2.947946   4.363270   4.774042   4.257592   3.672913
    27  H    2.590484   4.793950   4.917649   3.936367   2.794342
                   21         22         23         24         25
    21  H    0.000000
    22  H    3.672515   0.000000
    23  H    2.117758   1.767352   0.000000
    24  H    2.794432   1.774199   1.776567   0.000000
    25  H    3.734318   6.320386   5.374497   5.500691   0.000000
    26  H    5.054367   6.851523   6.320335   6.139676   1.767314
    27  H    4.084444   6.139752   5.500524   5.042430   1.776550
                   26         27
    26  H    0.000000
    27  H    1.774193   0.000000
 Stoichiometry    C9H18
 Framework group  C1[X(C9H18)]
 Deg. of freedom    75
 Full point group                 C1      NOp   1
 Largest Abelian subgroup         C1      NOp   1
 Largest concise Abelian subgroup C1      NOp   1
                         Standard orientation:                         
 ---------------------------------------------------------------------
 Center     Atomic      Atomic             Coordinates (Angstroms)
 Number     Number       Type             X           Y           Z
 ---------------------------------------------------------------------
      1          6           0       -0.000013   -0.780125    0.209928
      2          6           0       -1.266377   -0.053581   -0.274589
      3          6           0        1.266386   -0.053582   -0.274542
      4          6           0       -1.257188    1.410799    0.178472
      5          6           0        1.257171    1.410754    0.178715
      6          6           0        0.000054    2.146260   -0.290352
      7          6           0       -0.000046   -2.243536   -0.240599
      8          6           0       -2.543881   -0.740722    0.219319
      9          6           0        2.543903   -0.740757    0.219193
     10          1           0       -0.000039   -0.749041    1.316471
     11          1           0       -1.257527   -0.072310   -1.380170
     12          1           0        1.257460   -0.072093   -1.380132
     13          1           0       -1.312082    1.437392    1.280220
     14          1           0       -2.161843    1.914396   -0.193756
     15          1           0        2.161943    1.914365   -0.193194
     16          1           0        1.311776    1.437161    1.280487
     17          1           0        0.000184    2.198953   -1.391164
     18          1           0        0.000018    3.183476    0.075406
     19          1           0        0.000201   -2.307336   -1.338147
     20          1           0        0.879667   -2.781519    0.130903
     21          1           0       -0.880024   -2.781376    0.130494
     22          1           0       -3.425750   -0.139657   -0.036733
     23          1           0       -2.687205   -1.734702   -0.220887
     24          1           0       -2.521164   -0.853089    1.312534
     25          1           0        2.687292   -1.734634   -0.221242
     26          1           0        3.425773   -0.139640   -0.036746
     27          1           0        2.521266   -0.853411    1.312386
 ---------------------------------------------------------------------
 Rotational constants (GHZ):           1.9289815           1.5661341           0.9357273
 Standard basis: 6-311++G(d,p) (5D, 7F)
 There are   333 symmetry adapted cartesian basis functions of A   symmetry.
 There are   324 symmetry adapted basis functions of A   symmetry.
   324 basis functions,   486 primitive gaussians,   333 cartesian basis functions
    36 alpha electrons       36 beta electrons
       nuclear repulsion energy       501.2960734364 Hartrees.
 NAtoms=   27 NActive=   27 NUniq=   27 SFac= 1.00D+00 NAtFMM=   60 NAOKFM=F Big=F
 Integral buffers will be    131072 words long.
 Raffenetti 2 integral format.
 Two-electron integral symmetry is turned on.
 R6APFD:  NTU= -4 IXU= 1 FactS= 1.050
 Nuclear repulsion after empirical dispersion term =      501.2735760488 Hartrees.
 One-electron integrals computed using PRISM.
 NBasis=   324 RedAO= T EigKep=  4.58D-06  NBF=   324
 NBsUse=   324 1.00D-06 EigRej= -1.00D+00 NBFU=   324
 Initial guess from the checkpoint file:  "TCYE0161.chk"
[...]
 0.00043502,-0.00023116,0.00013128,-0.00005315,-0.00009065,-0.00001602,
 0.00006718,-0.00001483,0.00000767,0.00008846,0.00003161,-0.00077751,0.
 00019471,-0.00010932,0.00002802,-0.00001878,0.00003991,-0.00001390,0.0
 0002991,-0.00003012,0.00001016,-0.00002348,-0.00012606,0.00000032,0.00
 000316,-0.00244847,0.00002575,0.00071970,-0.11240260,0.11643620,-0.009
 82176,0.00464193,0.00310105,0.00031627,0.00165719,-0.00038372,0.000562
 40,-0.00062359,-0.00000465,-0.00040742,0.00036285,0.00060465,-0.000255
 91,-0.00003949,0.00000183,0.00000054,0.00000459,-0.00006586,0.07546504
 ,-0.04457256,-0.07846272,-0.00006959,0.00018946,0.00018373,0.00055448,
 -0.00027215,0.00089298,-0.00038041,-0.00050752,0.00022538,-0.00023814,
 0.00033275,0.00037284,0.00006451,-0.00004833,-0.00000557,0.00000629,-0
 .00012293,0.00001097,-0.00000572,0.00021904,-0.00006864,0.00000108,-0.
 00007343,-0.00001313,0.00000168,0.00001202,-0.00001839,0.00000326,0.00
 001074,0.00000636,-0.00000570,0.00000867,0.00000836,0.02644107,-0.0149
 8094,-0.00962257,-0.08207058,0.04685487,0.08035361,0.00101432,0.000548
 72,0.00096822,-0.00013636,-0.00045495,0.00047576,0.00033362,0.00066457
 ,0.00069263,0.00005635,-0.00002231,-0.00015345,0.00000750,0.00012257,-
 0.00023133,-0.00002317,-0.00007578,0.00007383,-0.22029326,-0.10452124,
 -0.07603381,-0.00201446,0.00122309,0.00063075,-0.00026694,0.00002251,-
 0.00046488,0.00005991,-0.00054712,0.00029338,-0.00004253,0.00001545,0.
 00003664,-0.00000991,0.00007072,-0.00006514,-0.00001445,0.00000163,0.0
 0001024,0.00008810,-0.00008030,-0.00000284,0.00007000,-0.00004098,0.00
 001702,-0.00000367,-0.00000754,0.00002277,0.00000081,0.00000398,-0.000
 00950,0.00001578,-0.00004104,-0.00000409,0.00083644,0.00149502,0.00125
 998,-0.01974116,-0.01228621,-0.00964359,0.24099520,-0.02625070,-0.0137
 6712,-0.01277761,-0.00120903,0.00094732,-0.00057849,0.00239125,-0.0059
 9156,0.00330437,-0.00000806,0.00022544,0.00022514,-0.00200753,-0.00033
 930,-0.00089366,-0.00019121,0.00026501,0.00001455,-0.10296030,-0.10583
 782,-0.04395050,0.00033602,-0.00060206,0.00016517,0.00098418,-0.000168
 37,0.00009298,0.00005214,0.00099348,0.00043511,0.00009065,-0.00001599,
 0.00006719,0.00023111,0.00013134,-0.00005318,-0.00003991,-0.00001391,0
 .00002991,0.00010933,0.00002803,-0.00001878,-0.00003142,-0.00077753,0.
 00019471,0.00001483,0.00000768,0.00008846,0.00003011,0.00001017,-0.000
 02348,0.00012607,0.00000034,0.00000316,0.00244869,0.00002632,0.0007198
 2,0.01228221,0.00731721,0.00637567,0.11240833,0.11648249,0.00982093,0.
 00464353,0.00310072,-0.00056229,-0.00062372,-0.00000465,-0.00031668,0.
 00165700,-0.00038372,0.00025593,-0.00003942,0.00000182,0.00040734,0.00
 036293,0.00060462,-0.00000054,0.00000459,-0.00006586,-0.07545228,-0.04
 458160,-0.07845745,-0.00055459,-0.00027214,0.00089326,0.00006947,0.000
 18940,0.00018371,0.00038052,-0.00050737,0.00022530,-0.00006451,-0.0000
 4838,-0.00000558,0.00023807,0.00033280,0.00037281,-0.00000168,0.000012
 02,-0.00001839,-0.00000107,-0.00007343,-0.00001313,0.00000567,0.000219
 03,-0.00006864,-0.00000626,-0.00012292,0.00001097,-0.00000326,0.000010
 74,0.00000636,0.00000569,0.00000868,0.00000836,-0.02643900,-0.01498536
 ,-0.00962188,0.00964360,0.00637773,0.00356874,0.08205156,0.04686798,0.
 08034920,-0.00302500,-0.00400153,-0.00351565,-0.02233269,0.01541225,0.
 00775022,-0.00094314,0.00148778,0.00089817,0.00071706,0.00211418,0.000
 55948,0.00015884,0.00038831,0.00004902,0.00028344,-0.00020945,-0.00037
 685,0.00022178,-0.00078654,0.00009163,-0.20993310,0.11889870,0.0454711
 1,-0.00043837,-0.00056284,-0.00027708,0.00025401,-0.00011856,0.0000597
 8,0.00037935,0.00012086,-0.00049973,0.00000281,-0.00000587,-0.00008145
 ,-0.00004992,-0.00008627,0.00002565,0.00029317,-0.00150267,-0.00014935
 ,0.00006838,-0.00013715,-0.00001532,0.00001219,-0.00001774,0.00001491,
 -0.00001184,0.00004046,0.00001493,0.00004441,-0.00001805,0.00000043,-0
 .00002867,0.00003764,-0.00006527,0.00002579,0.00012704,0.00000496,0.00
 017715,-0.00000125,0.00008339,0.23123982,-0.00254781,-0.00203442,-0.00
 090273,-0.01255475,0.00766571,0.00424965,-0.00069060,0.00045582,0.0002
 4623,-0.00153374,0.00094372,0.00021158,-0.00002304,0.00016718,0.000036
 80,0.00005038,0.00024331,0.00002438,0.00007322,-0.00068047,-0.00044068
 ,0.11999811,-0.13126984,-0.03300244,-0.00016197,-0.00015870,-0.0000589
 0,0.00002642,-0.00008250,-0.00002481,0.00076657,0.00024316,0.00011078,
 0.00001554,-0.00000256,-0.00001429,0.00021887,0.00001960,0.00014361,-0
 .00017793,-0.00049882,-0.00035789,0.00005020,0.00000515,-0.00000606,-0
 .00001296,0.00000016,0.00000712,0.00003813,0.00001514,0.00002935,0.000
 06288,0.00004917,0.00001114,0.00000335,0.00005225,0.00005060,0.0002478
 7,0.00019111,0.00008620,0.00036800,0.00052800,0.00030899,-0.12785248,0
 .14164326,-0.00089808,-0.00098114,-0.00061540,-0.00921957,0.00676334,0
 .00221591,-0.00039613,0.00015459,0.00061328,0.00023234,0.00035061,0.00
 030196,-0.00002636,-0.00000304,-0.00005689,-0.00002789,0.00027085,-0.0
 0014786,-0.00021155,-0.00001383,0.00027592,0.04555842,-0.03268416,-0.0
 5882070,-0.00016396,-0.00012182,-0.00007794,-0.00038415,0.00000556,0.0
 0037426,0.00028255,0.00049960,-0.00000759,0.00009726,0.00005544,0.0000
 1742,0.00017250,-0.00015937,-0.00014551,0.00019509,-0.00000356,0.00024
 682,-0.00000695,0.00000330,0.00001161,0.00000261,-0.00000713,0.0000018
 3,-0.00006027,-0.00002023,-0.00004762,0.00006006,0.00003273,0.00000449
 ,0.00012477,0.00001237,0.00002816,-0.00008889,-0.00004447,-0.00001052,
 -0.00007767,0.00001216,-0.00024418,-0.04827932,0.03668730,0.05907350,0
 .00098836,-0.00058268,0.00053544,-0.00135968,-0.02407759,0.01375444,-0
 .00000636,0.00013261,-0.00024428,-0.00506449,-0.00078261,-0.00230132,0
 .00036011,0.00004468,0.00001717,0.00061756,-0.00170040,0.00058197,-0.0
 0088711,0.00038962,0.00008267,-0.05053643,-0.03116756,0.01450085,0.000
 08564,0.00006089,0.00000845,-0.00003605,0.00003375,-0.00011442,0.00113
 369,0.00051311,-0.00018004,-0.00001381,-0.00003482,-0.00002783,-0.0001
 2663,0.00025296,0.00004132,0.00021844,-0.00018421,-0.00025704,-0.00002
 763,0.00006681,-0.00000588,-0.00000916,0.00002390,0.00002931,0.0000048
 7,0.00001031,-0.00005236,-0.00051700,-0.00030787,-0.00018064,-0.000038
 34,0.00006345,-0.00019841,0.00028564,0.00010454,-0.00006704,-0.0015707
 4,0.00128087,0.00045335,0.00374253,0.02222659,-0.01211919,0.05441064,0
 .00009044,-0.00050416,-0.00027338,0.00000398,-0.01205625,0.00566394,-0
 .00003538,0.00009726,0.00012968,-0.00357322,-0.00039062,-0.00216220,0.
 00010747,-0.00010140,-0.00011162,0.00041991,-0.00071236,0.00082037,0.0
 0092377,-0.00101703,-0.00064756,-0.03238184,-0.25980780,0.10260141,0.0
 0000197,0.00000596,-0.00002338,0.00004285,0.00002189,-0.00004859,-0.00
 006312,0.00025588,-0.00047767,0.00001122,-0.00001515,-0.00002186,0.000
 10846,0.00020699,0.00005354,-0.00001276,0.00045894,0.00000964,-0.00010
 083,0.00005886,0.00000592,0.00000640,0.00001303,0.00002204,-0.00002204
 ,-0.00000071,-0.00008731,-0.00035605,-0.00021067,-0.00010985,-0.000281
 68,-0.00002128,0.00006705,0.00036977,0.00035458,0.00008085,0.00203104,
 0.00019653,0.00015786,-0.00299814,-0.01507189,0.00777340,0.03478339,0.
 28347576,0.00031725,0.00064014,-0.00021312,-0.00067736,-0.01204692,0.0
 0447163,0.00011647,-0.00018203,0.00010858,-0.00214817,-0.00091565,-0.0
 0053886,-0.00000581,-0.00001973,-0.00007711,-0.00019002,-0.00067873,0.
 00069714,0.00014094,0.00070364,0.00069058,0.01551537,0.10262882,-0.094
 68363,0.00000079,0.00005157,-0.00003093,-0.00004110,0.00005137,0.00007
 823,0.00060106,-0.00015824,0.00049461,0.00001767,0.00001304,-0.0000135
 0,-0.00013375,-0.00032277,0.00040199,-0.00016035,0.00024355,-0.0001126
 7,-0.00000575,-0.00000353,0.00001104,-0.00001580,-0.00000309,0.0000104
 1,0.00011288,0.00006874,0.00000747,-0.00019192,-0.00014536,-0.00007866
 ,-0.00001858,-0.00001727,-0.00030158,-0.00025104,-0.00019365,-0.000195
 80,-0.00009623,-0.00039489,0.00012498,-0.00154472,-0.00755165,0.002624
 33,-0.01489222,-0.11065836,0.09857138,0.00178906,0.00009030,-0.0018812
 0,-0.00058936,-0.00335882,-0.02954340,-0.00010325,-0.00027271,-0.00006
 128,0.00055880,0.00134748,-0.00039813,0.00009433,0.00002779,-0.0000111
 4,-0.00011146,0.00000368,0.00002468,0.00001692,0.00004186,0.00015466,-
 0.04516824,0.00131837,0.01097843,0.00005667,0.00005195,0.00012252,-0.0
 0043600,-0.00011163,0.00090021,-0.00438960,-0.00280945,-0.00167740,0.0
 0006562,0.00006437,0.00028646,0.00017889,-0.00027974,0.00059819,-0.000
 03176,-0.00007618,0.00014331,0.00001142,0.00002608,0.00000385,-0.00001
 759,-0.00001625,0.00003500,0.00006539,0.00006432,0.00016238,-0.0000261
 4,-0.00000972,0.00010265,0.00011667,-0.00019088,0.00012665,0.00004890,
 0.00005636,0.00005418,0.00010096,0.00020166,-0.00002119,-0.00066546,0.
 00152406,0.02528428,-0.00160319,0.00099674,0.00350970,0.05006241,0.000
 96898,0.00045793,0.00033892,0.00077887,-0.00231191,-0.01480858,0.00009
 340,-0.00013699,0.00007639,0.00062855,0.00085899,-0.00128560,-0.000003
 36,0.00003659,-0.00004544,-0.00021641,-0.00012501,0.00024200,0.0000488
 1,0.00028920,0.00011421,0.00121396,-0.05014153,-0.03028273,-0.00000922
 ,-0.00000984,0.00004860,-0.00019499,0.00019346,0.00030539,-0.00223528,
 -0.00079675,-0.00062236,0.00007990,0.00002026,0.00006421,-0.00034711,-
 0.00032406,0.00055937,-0.00004774,0.00003760,-0.00002467,0.00001011,-0
 .00002258,0.00000324,-0.00001718,-0.00000173,0.00002696,0.00011875,0.0
 0002308,0.00017855,-0.00002430,-0.00003372,0.00004512,-0.00016163,-0.0
 0008618,-0.00010107,-0.00002365,0.00001049,-0.00009804,-0.00030439,-0.
 00020158,0.00003208,-0.00042582,-0.00252060,-0.01859422,-0.00122290,0.
 00468642,0.02892506,0.00129308,0.05010673,0.00124175,-0.00026230,0.000
 63625,-0.00085642,-0.00109464,-0.01239332,-0.00003262,0.00006221,0.000
 43592,0.00020034,0.00047086,0.00023031,0.00004113,-0.00000746,-0.00007
 843,-0.00003036,-0.00010293,0.00040384,-0.00031705,0.00011705,0.000049
 76,0.01130927,-0.03005859,-0.29836405,-0.00005751,-0.00003799,0.000010
 18,-0.00096733,0.00026401,0.00030218,-0.00199189,-0.00137377,0.0007076
 4,0.00024537,0.00008266,0.00009592,-0.00012165,-0.00081231,0.00028270,
 -0.00007585,0.00008584,-0.00001868,-0.00002604,0.00000671,0.00001372,-
 0.00004141,-0.00001393,0.00003526,0.00018235,0.00015275,0.00008034,-0.
 00009942,-0.00007895,0.00001286,0.00020783,-0.00004811,0.00015171,-0.0
 0005485,0.00006784,0.00004090,-0.00014492,0.00026438,-0.00040196,-0.00
 029100,0.00014421,-0.00562859,0.00065565,-0.00275251,-0.01206517,-0.00
 891293,0.03490690,0.32545157,0.00098824,0.00058301,-0.00053537,-0.0000
 0632,-0.00013261,0.00024421,-0.00136592,0.02408024,-0.01375542,0.00036
 014,-0.00004457,-0.00001715,-0.00506551,0.00078154,0.00230197,0.000617
 30,0.00170074,-0.00058217,-0.00088630,-0.00038900,-0.00008231,0.000085
 66,-0.00006087,-0.00000845,-0.05055353,0.03122412,-0.01452786,-0.00003
 603,-0.00003376,0.00011441,-0.00001381,0.00003482,0.00002783,0.0011337
 9,-0.00051296,0.00018011,-0.00000915,-0.00002391,-0.00002931,-0.000027
 64,-0.00006682,0.00000588,0.00021842,0.00018417,0.00025705,-0.00012656
 ,-0.00025307,-0.00004132,0.00000487,-0.00001031,0.00005238,-0.00051716
 ,0.00030781,0.00018067,-0.00003846,-0.00006345,0.00019839,-0.00154349,
 -0.00126592,-0.00044759,0.00028575,-0.00010461,0.00006696,0.00003169,-
 0.00003397,0.00000927,-0.00007225,-0.00005547,0.00001907,-0.00001030,0
 .00001625,-0.00000839,0.05440215,-0.00009006,-0.00050389,-0.00027348,0
 .00003537,0.00009723,0.00012970,-0.00000145,-0.01204950,0.00566001,-0.
 00010734,-0.00010144,-0.00011163,0.00357201,-0.00038965,-0.00216164,-0
 .00041960,-0.00071198,0.00082023,-0.00092289,-0.00101698,-0.00064730,-
 0.00000196,0.00000595,-0.00002338,0.03243728,-0.25979772,0.10259524,-0
 .00004285,0.00002187,-0.00004856,-0.00001122,-0.00001515,-0.00002185,0
 .00006334,0.00025574,-0.00047765,-0.00000640,0.00001302,0.00002203,0.0
 0010081,0.00005887,0.00000593,0.00001274,0.00045904,0.00000972,-0.0001
 0856,0.00020692,0.00005353,0.00002204,-0.00000071,-0.00008730,0.000355
 96,-0.00021050,-0.00010981,0.00028163,-0.00002122,0.00006707,-0.002015
 43,0.00020468,0.00016119,-0.00036960,0.00035441,0.00008084,0.00001246,
 0.00002091,0.00000026,0.00005543,0.00006628,-0.00002032,0.00000445,-0.
 00000999,0.00000866,-0.03486096,0.28345474,-0.00031748,0.00064002,-0.0
 0021304,-0.00011643,-0.00018204,0.00010855,0.00068040,-0.01204745,0.00
 447176,0.00000580,-0.00001973,-0.00007711,0.00214850,-0.00091516,-0.00
 053901,0.00019018,-0.00067874,0.00069720,-0.00014120,0.00070349,0.0006
 9040,-0.00000080,0.00005156,-0.00003093,-0.01554182,0.10262281,-0.0946
 7928,0.00004110,0.00005138,0.00007821,-0.00001767,0.00001303,-0.000013
 50,-0.00060106,-0.00015833,0.00049460,0.00001580,-0.00000309,0.0000104
 1,0.00000575,-0.00000353,0.00001104,0.00016031,0.00024359,-0.00011268,
 0.00013383,-0.00032273,0.00040202,-0.00011290,0.00006872,0.00000747,0.
 00019197,-0.00014532,-0.00007866,0.00001860,-0.00001726,-0.00030153,0.
 00010203,-0.00039144,0.00012617,0.00025098,-0.00019355,-0.00019579,-0.
 00001879,-0.00002010,0.00000045,-0.00001906,-0.00002032,0.00002450,-0.
 00000280,0.00000636,-0.00000628,0.01491533,-0.11065550,0.09856549,-0.0
 0302637,0.00400139,0.00351601,-0.00094299,-0.00148812,-0.00089822,-0.0
 2233232,-0.01541948,-0.00775118,0.00015893,-0.00038832,-0.00004903,0.0
 0071706,-0.00211432,-0.00055956,0.00028343,0.00020947,0.00037686,0.000
 22160,0.00078670,-0.00009149,-0.00043855,0.00056278,0.00027708,-0.2098
 7446,-0.11891978,-0.04546273,0.00025400,0.00011863,-0.00005978,0.00000
 282,0.00000587,0.00008145,0.00037959,-0.00012083,0.00049970,0.00001218
 ,0.00001775,-0.00001491,0.00006837,0.00013717,0.00001532,0.00029276,0.
 00150290,0.00014945,-0.00004988,0.00008625,-0.00002568,-0.00001182,-0.
 00004047,-0.00001494,0.00004442,0.00001805,-0.00000043,-0.00002866,-0.
 00003766,0.00006526,0.00017724,0.00000113,-0.00008346,0.00002586,-0.00
 012709,-0.00000499,-0.00026581,-0.00007876,-0.00006329,0.00003169,-0.0
 0001246,0.00001880,0.00004160,-0.00000600,-0.00002758,0.00374776,0.003
 00314,0.00154669,0.23117711,0.00254747,-0.00203266,-0.00090187,0.00069
 024,0.00045557,0.00024598,0.01254695,0.00766466,0.00424755,0.00002305,
 0.00016709,0.00003679,0.00153395,0.00094344,0.00021139,-0.00005036,0.0
 0024337,0.00002450,-0.00007290,-0.00068011,-0.00044063,0.00016188,-0.0
 0015850,-0.00005883,-0.12001955,-0.13133089,-0.03301399,-0.00002633,-0
 .00008248,-0.00002482,-0.00001554,-0.00000256,-0.00001426,-0.00076651,
 0.00024294,0.00011092,0.00001296,0.00000017,0.00000711,-0.00005018,0.0
 0000517,-0.00000606,0.00017830,-0.00049850,-0.00035787,-0.00021892,0.0
 0001957,0.00014361,-0.00003814,0.00001512,0.00002935,-0.00006288,0.000
 04916,0.00001115,-0.00000335,0.00005223,0.00005059,-0.00036786,0.00052
 787,0.00030891,-0.00024781,0.00019099,0.00008618,0.00007867,0.00008627
 ,0.00001917,0.00003397,0.00002092,-0.00002009,0.00000218,-0.00001013,0
 .00001242,-0.02222219,-0.01507708,-0.00755111,0.12787603,0.14170893,0.
 00089835,-0.00098110,-0.00061553,0.00039614,0.00015472,0.00061330,0.00
 921869,0.00676592,0.00221609,0.00002636,-0.00000302,-0.00005689,-0.000
 23240,0.00035061,0.00030198,0.00002783,0.00027086,-0.00014787,0.000211
 40,-0.00001387,0.00027582,0.00016401,-0.00012180,-0.00007795,-0.045550
 09,-0.03269556,-0.05881986,0.00038415,0.00000564,0.00037425,-0.0000972
 7,0.00005542,0.00001742,-0.00028268,0.00049954,-0.00000759,-0.00000261
 ,-0.00000713,0.00000184,0.00000694,0.00000330,0.00001161,-0.00019511,-
 0.00000362,0.00024685,-0.00017247,-0.00015943,-0.00014551,0.00006028,-
 0.00002022,-0.00004763,-0.00006007,0.00003272,0.00000449,-0.00012474,0
 .00001234,0.00002815,0.00007761,0.00001217,-0.00024414,0.00008886,-0.0
 0004444,-0.00001051,0.00006329,0.00001919,0.00001321,-0.00000926,0.000
 00026,0.00000045,-0.00000413,-0.00000767,-0.00000037,0.01211684,0.0077
 7632,0.00262408,0.04826975,0.03669956,0.05907295,0.00178944,-0.0000901
 0,0.00188098,-0.00010328,0.00027273,0.00006128,-0.00058948,0.00335897,
 0.02954712,0.00009433,-0.00002778,0.00001115,0.00055922,-0.00134757,0.
 00039852,-0.00011152,-0.00000369,-0.00002473,0.00001690,-0.00004195,-0
 .00015469,0.00005668,-0.00005193,-0.00012253,-0.04516822,-0.00131744,-
 0.01097483,-0.00043597,0.00011145,-0.00090029,0.00006565,-0.00006435,-
 0.00028648,-0.00439075,0.00280857,0.00167768,-0.00001760,0.00001625,-0
 .00003501,0.00001143,-0.00002607,-0.00000385,-0.00003179,0.00007617,-0
 .00014332,0.00017873,0.00027988,-0.00059833,0.00006543,-0.00006431,-0.
 00016242,-0.00002614,0.00000972,-0.00010266,0.00011658,0.00019090,-0.0
 0012662,0.00010088,-0.00020153,0.00002115,0.00004889,-0.00005635,-0.00
 005415,0.00004160,-0.00000217,0.00000413,-0.00001030,-0.00000445,0.000
 00280,-0.00005528,-0.00001068,-0.00002645,-0.00160335,-0.00099832,-0.0
 0351725,-0.00066556,-0.00152313,-0.02527967,0.05006347,-0.00096856,0.0
 0045767,0.00033944,-0.00009339,-0.00013693,0.00007638,-0.00077867,-0.0
 0231106,-0.01480080,0.00000337,0.00003659,-0.00004543,-0.00062858,0.00
 085847,-0.00128556,0.00021641,-0.00012495,0.00024199,-0.00004887,0.000
 28912,0.00011417,0.00000924,-0.00000985,0.00004857,-0.00121294,-0.0501
 4117,-0.03028034,0.00019482,0.00019354,0.00030515,-0.00007988,0.000020
 22,0.00006414,0.00223430,-0.00079547,-0.00062199,0.00001717,-0.0000017
 2,0.00002695,-0.00001010,-0.00002259,0.00000324,0.00004772,0.00003763,
 -0.00002472,0.00034730,-0.00032396,0.00055920,-0.00011873,0.00002303,0
 .00017851,0.00002430,-0.00003371,0.00004509,0.00016165,-0.00008609,-0.
 00010109,0.00030437,-0.00020150,0.00003204,0.00002365,0.00001047,-0.00
 009804,0.00000601,-0.00001013,-0.00000767,-0.00001625,-0.00001000,0.00
 000636,0.00001066,0.00001185,-0.00000302,0.00122178,0.00468615,0.02892
 444,0.00042602,-0.00252057,-0.01860070,-0.00129281,0.05010495,-0.00124
 169,-0.00026250,0.00063623,0.00003261,0.00006221,0.00043591,0.00085648
 ,-0.00109440,-0.01239412,-0.00004112,-0.00000747,-0.00007842,-0.000200
 54,0.00047092,0.00023028,0.00003040,-0.00010293,0.00040387,0.00031701,
 0.00011711,0.00004971,0.00005752,-0.00003797,0.00001018,-0.01130579,-0
 .03005650,-0.29836371,0.00096731,0.00026423,0.00030217,-0.00024538,0.0
 0008260,0.00009594,0.00199237,-0.00137329,0.00070757,0.00004141,-0.000
 01393,0.00003526,0.00002604,0.00000671,0.00001372,0.00007584,0.0000858
 6,-0.00001868,0.00012184,-0.00081228,0.00028276,-0.00018239,0.00015272
 ,0.00008035,0.00009944,-0.00007892,0.00001286,-0.00020778,-0.00004817,
 0.00015169,0.00014486,0.00026436,-0.00040188,0.00005482,0.00006785,0.0
 0004089,0.00002758,0.00001243,-0.00000037,0.00000838,0.00000866,-0.000
 00628,0.00002645,-0.00000301,0.00001578,-0.00065504,-0.00275232,-0.012
 06454,0.00029090,0.00014435,-0.00562863,0.00890846,0.03490369,0.325451
 46\\0.00000161,0.00001065,-0.00003296,-0.00000091,0.00002618,0.0000143
 5,-0.00000139,0.00002616,0.00001386,0.00001548,-0.00002504,-0.00002318
 ,-0.00001638,-0.00002373,-0.00002312,0.00000016,-0.00000903,-0.0000138
 2,0.00000244,-0.00000178,0.00002647,0.00002280,0.00000427,-0.00001650,
 -0.00002593,0.00000214,-0.00001795,0.00000024,-0.00000031,0.00001531,-
 0.00000533,-0.00000575,-0.00000339,0.00000494,-0.00000610,-0.00000368,
 0.00000090,0.00000331,-0.00000100,-0.00000290,0.00000533,0.00000671,0.
 00000290,0.00000563,0.00000678,-0.00000084,0.00000326,-0.00000106,0.00
 000003,-0.00000221,0.00001274,0.00000025,0.00001807,0.00000333,-0.0000
 0002,-0.00000376,-0.00000801,-0.00000627,-0.00001083,0.00000123,0.0000
 0836,-0.00001090,0.00000113,-0.00000290,0.00000395,0.00000610,-0.00000
 668,-0.00000317,0.00000724,-0.00000392,-0.00000264,0.00000744,0.000005
 93,-0.00000497,0.00000770,0.00000337,0.00000398,0.00000638,0.00000405,
 -0.00000270,0.00000791\\\@


 A warm smile is the universal language of kindness.
                             -- William Arthur Ward
 Job cpu time:       0 days  5 hours 47 minutes 38.3 seconds.
 Elapsed time:       0 days  0 hours 21 minutes 49.5 seconds.
 File lengths (MBytes):  RWF=    233 Int=      0 D2E=      0 Chk=     10 Scr=      1
 Normal termination of Gaussian 16 at Sat Sep 27 15:01:33 2025.
