 Entering Gaussian System, Link 0=g16
 Input=TEBU0076.gjf
 Output=TEBU0076.log
 Initial command:
 /usr/local/g16/l1.exe "/dados_01/scratch/Gau-2285821.inp" -scrdir="/dados_01/scratch/"
 Entering Link 1 = /usr/local/g16/l1.exe PID=   2285822.
  
 Copyright (c) 1988-2017, Gaussian, Inc.  All Rights Reserved.
  
 This is part of the Gaussian(R) 16 program.  It is based on
 the Gaussian(R) 09 system (copyright 2009, Gaussian, Inc.),
 the Gaussian(R) 03 system (copyright 2003, Gaussian, Inc.),
 the Gaussian(R) 98 system (copyright 1998, Gaussian, Inc.),
 the Gaussian(R) 94 system (copyright 1995, Gaussian, Inc.),
 the Gaussian 92(TM) system (copyright 1992, Gaussian, Inc.),
 the Gaussian 90(TM) system (copyright 1990, Gaussian, Inc.),
 the Gaussian 88(TM) system (copyright 1988, Gaussian, Inc.),
 the Gaussian 86(TM) system (copyright 1986, Carnegie Mellon
 University), and the Gaussian 82(TM) system (copyright 1983,
 Carnegie Mellon University). Gaussian is a federally registered
 trademark of Gaussian, Inc.
  
 This software contains proprietary and confidential information,
 including trade secrets, belonging to Gaussian, Inc.
  
 This software is provided under written license and may be
 used, copied, transmitted, or stored only in accord with that
 written license.
  
 The following legend is applicable only to US Government
 contracts under FAR:
  
                    RESTRICTED RIGHTS LEGEND
  
 Use, reproduction and disclosure by the US Government is
 subject to restrictions as set forth in subparagraphs (a)
 and (c) of the Commercial Computer Software - Restricted
 Rights clause in FAR 52.227-19.
  
 Gaussian, Inc.
 340 Quinnipiac St., Bldg. 40, Wallingford CT 06492
  
  
 ---------------------------------------------------------------
 Warning -- This program may not be used in any manner that
 competes with the business of Gaussian, Inc. or will provide
 assistance to any competitor of Gaussian, Inc.  The licensee
 of this program is prohibited from giving any competitor of
 Gaussian, Inc. access to this program.  By using this program,
 the user acknowledges that Gaussian, Inc. is engaged in the
 business of creating and licensing software in the field of
 computational chemistry and represents and warrants to the
 licensee that it is not a competitor of Gaussian, Inc. and that
 it will not use this program in any manner prohibited above.
 ---------------------------------------------------------------
  

 Cite this work as:
 Gaussian 16, Revision B.01,
 M. J. Frisch, G. W. Trucks, H. B. Schlegel, G. E. Scuseria, 
 M. A. Robb, J. R. Cheeseman, G. Scalmani, V. Barone, 
 G. A. Petersson, H. Nakatsuji, X. Li, M. Caricato, A. V. Marenich, 
 J. Bloino, B. G. Janesko, R. Gomperts, B. Mennucci, H. P. Hratchian, 
 J. V. Ortiz, A. F. Izmaylov, J. L. Sonnenberg, D. Williams-Young, 
 F. Ding, F. Lipparini, F. Egidi, J. Goings, B. Peng, A. Petrone, 
 T. Henderson, D. Ranasinghe, V. G. Zakrzewski, J. Gao, N. Rega, 
 G. Zheng, W. Liang, M. Hada, M. Ehara, K. Toyota, R. Fukuda, 
 J. Hasegawa, M. Ishida, T. Nakajima, Y. Honda, O. Kitao, H. Nakai, 
 T. Vreven, K. Throssell, J. A. Montgomery, Jr., J. E. Peralta, 
 F. Ogliaro, M. J. Bearpark, J. J. Heyd, E. N. Brothers, K. N. Kudin, 
 V. N. Staroverov, T. A. Keith, R. Kobayashi, J. Normand, 
 K. Raghavachari, A. P. Rendell, J. C. Burant, S. S. Iyengar, 
 J. Tomasi, M. Cossi, J. M. Millam, M. Klene, C. Adamo, R. Cammi, 
 J. W. Ochterski, R. L. Martin, K. Morokuma, O. Farkas, 
 J. B. Foresman, and D. J. Fox, Gaussian, Inc., Wallingford CT, 2016.
 
 ******************************************
 Gaussian 16:  ES64L-G16RevB.01 20-Dec-2017
                27-Sep-2025 
 ******************************************
 %nprocs=16
 Will use up to   16 processors via shared memory.
 %mem=40GB
 %chk=TEBU0076.chk
 ----------------------------------------------------------------------
 # opt freq=noraman M08HX/6-311++G** scf=xqc Empiricaldispersion=pfd In
 t(Grid=ultraFine)
 ----------------------------------------------------------------------
 1/18=20,19=15,26=4,38=1/1,3;
 2/9=110,12=2,17=6,18=5,40=1/2;
 3/5=4,6=6,7=1111,11=2,25=1,30=1,71=1,74=-74,75=-5,124=11/1,2,3;
 4//1;
 5/5=2,8=3,13=1,38=5/2,8;
 6/7=2,8=2,9=2,10=2,28=1/1;
 7//1,2,3,16;
 1/18=20,19=15,26=4/3(2);
 2/9=110/2;
 99//99;
 2/9=110/2;
 3/5=4,6=6,7=1111,11=2,25=1,30=1,71=1,74=-74,75=-5,124=11/1,2,3;
 4/5=5,16=3,69=1/1;
 5/5=2,8=3,13=1,38=5/2,8;
 7//1,2,3,16;
 1/18=20,19=15,26=4/3(-5);
 2/9=110/2;
 6/7=2,8=2,9=2,10=2,19=2,28=1/1;
 99/9=1/99;
 --------
 TEBU0076
 --------
 Symbolic Z-matrix:
 Charge =  0 Multiplicity = 1
 O                     0.9726   -2.2161    0.0105 
 O                    -3.0697    1.5331   -0.0012 
 C                     1.7081    0.5446   -0.0021 
 C                     0.2366    0.0645    0.0018 
 C                     1.7558    2.0881   -0.0099 
 C                     2.433     0.0029   -1.2534 
 C                     2.5092    0.0697    1.2301 
 C                    -0.017    -1.2794    0.008 
 C                    -0.7371    1.0267   -0.0021 
 C                    -2.0687    0.6109    0.0006 
 C                    -1.3485   -1.6951    0.0107 
 C                    -2.3744   -0.7499    0.0069 
 H                     2.7995    2.4298   -0.0222 
 H                     1.2987    2.5201   -0.9083 
 H                     1.3105    2.5311    0.8892 
 H                     1.8693    0.2346   -2.165 
 H                     3.4213    0.4676   -1.357 
 H                     2.6037   -1.0766   -1.2352 
 H                     3.5158    0.5048    1.2383 
 H                     2.0093    0.3729    2.1577 
 H                     2.6356   -1.0157    1.271 
 H                    -0.5794    2.0964   -0.0057 
 H                    -1.6011   -2.7521    0.0155 
 H                    -3.4075   -1.0867    0.0093 
 H                     0.5714   -3.102     0.0145 
 H                    -3.925     1.0698    0.0016 
 

 GradGradGradGradGradGradGradGradGradGradGradGradGradGradGradGradGradGrad
 Berny optimization.
 Initialization pass.
                           ----------------------------
                           !    Initial Parameters    !
                           ! (Angstroms and Degrees)  !
 --------------------------                            --------------------------
 ! Name  Definition              Value          Derivative Info.                !
 --------------------------------------------------------------------------------
 ! R1    R(1,8)                  1.3626         estimate D2E/DX2                !
 ! R2    R(1,25)                 0.9725         estimate D2E/DX2                !
 ! R3    R(2,10)                 1.361          estimate D2E/DX2                !
 ! R4    R(2,26)                 0.9727         estimate D2E/DX2                !
 ! R5    R(3,4)                  1.5478         estimate D2E/DX2                !
 ! R6    R(3,5)                  1.5443         estimate D2E/DX2                !
 ! R7    R(3,6)                  1.5442         estimate D2E/DX2                !
 ! R8    R(3,7)                  1.5445         estimate D2E/DX2                !
 ! R9    R(4,8)                  1.3676         estimate D2E/DX2                !
 ! R10   R(4,9)                  1.3689         estimate D2E/DX2                !
 ! R11   R(5,13)                 1.0983         estimate D2E/DX2                !
 ! R12   R(5,14)                 1.0967         estimate D2E/DX2                !
 ! R13   R(5,15)                 1.0968         estimate D2E/DX2                !
 ! R14   R(6,16)                 1.0966         estimate D2E/DX2                !
 ! R15   R(6,17)                 1.097          estimate D2E/DX2                !
 ! R16   R(6,18)                 1.0931         estimate D2E/DX2                !
 ! R17   R(7,19)                 1.0966         estimate D2E/DX2                !
 ! R18   R(7,20)                 1.0965         estimate D2E/DX2                !
 ! R19   R(7,21)                 1.0935         estimate D2E/DX2                !
 ! R20   R(8,11)                 1.3949         estimate D2E/DX2                !
 ! R21   R(9,10)                 1.395          estimate D2E/DX2                !
 ! R22   R(9,22)                 1.0813         estimate D2E/DX2                !
 ! R23   R(10,12)                1.3947         estimate D2E/DX2                !
 ! R24   R(11,12)                1.395          estimate D2E/DX2                !
 ! R25   R(11,23)                1.0868         estimate D2E/DX2                !
 ! R26   R(12,24)                1.0866         estimate D2E/DX2                !
 ! A1    A(8,1,25)             109.0627         estimate D2E/DX2                !
 ! A2    A(10,2,26)            108.9024         estimate D2E/DX2                !
 ! A3    A(4,3,5)              109.8403         estimate D2E/DX2                !
 ! A4    A(4,3,6)              109.8468         estimate D2E/DX2                !
 ! A5    A(4,3,7)              113.3099         estimate D2E/DX2                !
 ! A6    A(5,3,6)              109.3916         estimate D2E/DX2                !
 ! A7    A(5,3,7)              107.1772         estimate D2E/DX2                !
 ! A8    A(6,3,7)              107.1642         estimate D2E/DX2                !
 ! A9    A(3,4,8)              118.7564         estimate D2E/DX2                !
 ! A10   A(3,4,9)              117.2699         estimate D2E/DX2                !
 ! A11   A(8,4,9)              123.9737         estimate D2E/DX2                !
 ! A12   A(3,5,13)             109.9001         estimate D2E/DX2                !
 ! A13   A(3,5,14)             112.6431         estimate D2E/DX2                !
 ! A14   A(3,5,15)             112.7699         estimate D2E/DX2                !
 ! A15   A(13,5,14)            105.329          estimate D2E/DX2                !
 ! A16   A(13,5,15)            105.6253         estimate D2E/DX2                !
 ! A17   A(14,5,15)            110.0733         estimate D2E/DX2                !
 ! A18   A(3,6,16)             110.9892         estimate D2E/DX2                !
 ! A19   A(3,6,17)             110.5384         estimate D2E/DX2                !
 ! A20   A(3,6,18)             113.9695         estimate D2E/DX2                !
 ! A21   A(16,6,17)            107.1638         estimate D2E/DX2                !
 ! A22   A(16,6,18)            107.6255         estimate D2E/DX2                !
 ! A23   A(17,6,18)            106.2144         estimate D2E/DX2                !
 ! A24   A(3,7,19)             111.1035         estimate D2E/DX2                !
 ! A25   A(3,7,20)             110.6963         estimate D2E/DX2                !
 ! A26   A(3,7,21)             113.265          estimate D2E/DX2                !
 ! A27   A(19,7,20)            107.6043         estimate D2E/DX2                !
 ! A28   A(19,7,21)            106.7046         estimate D2E/DX2                !
 ! A29   A(20,7,21)            107.1893         estimate D2E/DX2                !
 ! A30   A(1,8,4)              122.7408         estimate D2E/DX2                !
 ! A31   A(1,8,11)             119.2341         estimate D2E/DX2                !
 ! A32   A(4,8,11)             118.0251         estimate D2E/DX2                !
 ! A33   A(4,9,10)             117.9985         estimate D2E/DX2                !
 ! A34   A(4,9,22)             126.2735         estimate D2E/DX2                !
 ! A35   A(10,9,22)            115.7279         estimate D2E/DX2                !
 ! A36   A(2,10,9)             120.0047         estimate D2E/DX2                !
 ! A37   A(2,10,12)            119.9926         estimate D2E/DX2                !
 ! A38   A(9,10,12)            120.0026         estimate D2E/DX2                !
 ! A39   A(8,11,12)            120.0054         estimate D2E/DX2                !
 ! A40   A(8,11,23)            120.7791         estimate D2E/DX2                !
 ! A41   A(12,11,23)           119.2155         estimate D2E/DX2                !
 ! A42   A(10,12,11)           119.9947         estimate D2E/DX2                !
 ! A43   A(10,12,24)           120.7178         estimate D2E/DX2                !
 ! A44   A(11,12,24)           119.2874         estimate D2E/DX2                !
 ! D1    D(25,1,8,4)          -179.9718         estimate D2E/DX2                !
 ! D2    D(25,1,8,11)           -0.0271         estimate D2E/DX2                !
 ! D3    D(26,2,10,9)         -179.9715         estimate D2E/DX2                !
 ! D4    D(26,2,10,12)          -0.0548         estimate D2E/DX2                !
 ! D5    D(5,3,4,8)            179.9615         estimate D2E/DX2                !
 ! D6    D(5,3,4,9)              0.0025         estimate D2E/DX2                !
 ! D7    D(6,3,4,8)             59.597          estimate D2E/DX2                !
 ! D8    D(6,3,4,9)           -120.362          estimate D2E/DX2                !
 ! D9    D(7,3,4,8)            -60.2147         estimate D2E/DX2                !
 ! D10   D(7,3,4,9)            119.8263         estimate D2E/DX2                !
 ! D11   D(4,3,5,13)          -179.4714         estimate D2E/DX2                !
 ! D12   D(4,3,5,14)           -62.3656         estimate D2E/DX2                !
 ! D13   D(4,3,5,15)            62.9732         estimate D2E/DX2                !
 ! D14   D(6,3,5,13)           -58.8315         estimate D2E/DX2                !
 ! D15   D(6,3,5,14)            58.2742         estimate D2E/DX2                !
 ! D16   D(6,3,5,15)          -176.3869         estimate D2E/DX2                !
 ! D17   D(7,3,5,13)            57.0347         estimate D2E/DX2                !
 ! D18   D(7,3,5,14)           174.1405         estimate D2E/DX2                !
 ! D19   D(7,3,5,15)           -60.5207         estimate D2E/DX2                !
 ! D20   D(4,3,6,16)            51.8334         estimate D2E/DX2                !
 ! D21   D(4,3,6,17)           170.6014         estimate D2E/DX2                !
 ! D22   D(4,3,6,18)           -69.8677         estimate D2E/DX2                !
 ! D23   D(5,3,6,16)           -68.8025         estimate D2E/DX2                !
 ! D24   D(5,3,6,17)            49.9655         estimate D2E/DX2                !
 ! D25   D(5,3,6,18)           169.4964         estimate D2E/DX2                !
 ! D26   D(7,3,6,16)           175.323          estimate D2E/DX2                !
 ! D27   D(7,3,6,17)           -65.909          estimate D2E/DX2                !
 ! D28   D(7,3,6,18)            53.6219         estimate D2E/DX2                !
 ! D29   D(4,3,7,19)          -174.75           estimate D2E/DX2                !
 ! D30   D(4,3,7,20)           -55.2545         estimate D2E/DX2                !
 ! D31   D(4,3,7,21)            65.1638         estimate D2E/DX2                !
 ! D32   D(5,3,7,19)           -53.4172         estimate D2E/DX2                !
 ! D33   D(5,3,7,20)            66.0782         estimate D2E/DX2                !
 ! D34   D(5,3,7,21)          -173.5035         estimate D2E/DX2                !
 ! D35   D(6,3,7,19)            63.9182         estimate D2E/DX2                !
 ! D36   D(6,3,7,20)          -176.5864         estimate D2E/DX2                !
 ! D37   D(6,3,7,21)           -56.168          estimate D2E/DX2                !
 ! D38   D(3,4,8,1)             -0.0199         estimate D2E/DX2                !
 ! D39   D(3,4,8,11)          -179.9652         estimate D2E/DX2                !
 ! D40   D(9,4,8,1)            179.9362         estimate D2E/DX2                !
 ! D41   D(9,4,8,11)            -0.0092         estimate D2E/DX2                !
 ! D42   D(3,4,9,10)           179.9658         estimate D2E/DX2                !
 ! D43   D(3,4,9,22)            -0.1297         estimate D2E/DX2                !
 ! D44   D(8,4,9,10)             0.0092         estimate D2E/DX2                !
 ! D45   D(8,4,9,22)           179.9136         estimate D2E/DX2                !
 ! D46   D(1,8,11,12)         -179.9383         estimate D2E/DX2                !
 ! D47   D(1,8,11,23)            0.046          estimate D2E/DX2                !
 ! D48   D(4,8,11,12)            0.0091         estimate D2E/DX2                !
 ! D49   D(4,8,11,23)          179.9933         estimate D2E/DX2                !
 ! D50   D(4,9,10,2)           179.9077         estimate D2E/DX2                !
 ! D51   D(4,9,10,12)           -0.009          estimate D2E/DX2                !
 ! D52   D(22,9,10,2)           -0.0068         estimate D2E/DX2                !
 ! D53   D(22,9,10,12)        -179.9235         estimate D2E/DX2                !
 ! D54   D(2,10,12,11)        -179.9073         estimate D2E/DX2                !
 ! D55   D(2,10,12,24)           0.0685         estimate D2E/DX2                !
 ! D56   D(9,10,12,11)           0.0094         estimate D2E/DX2                !
 ! D57   D(9,10,12,24)         179.9852         estimate D2E/DX2                !
 ! D58   D(8,11,12,10)          -0.0095         estimate D2E/DX2                !
 ! D59   D(8,11,12,24)        -179.9856         estimate D2E/DX2                !
 ! D60   D(23,11,12,10)       -179.9939         estimate D2E/DX2                !
 ! D61   D(23,11,12,24)          0.03           estimate D2E/DX2                !
 --------------------------------------------------------------------------------
 Trust Radius=3.00D-01 FncErr=1.00D-07 GrdErr=1.00D-06 EigMax=2.50D+02 EigMin=1.00D-04
 Number of steps in this run=    141 maximum allowed number of steps=    156.
 GradGradGradGradGradGradGradGradGradGradGradGradGradGradGradGradGradGrad

                          Input orientation:                          
 ---------------------------------------------------------------------
 Center     Atomic      Atomic             Coordinates (Angstroms)
 Number     Number       Type             X           Y           Z
 ---------------------------------------------------------------------
      1          8           0        0.972600   -2.216100    0.010500
      2          8           0       -3.069700    1.533100   -0.001200
      3          6           0        1.708100    0.544600   -0.002100
      4          6           0        0.236600    0.064500    0.001800
      5          6           0        1.755800    2.088100   -0.009900
      6          6           0        2.433000    0.002900   -1.253400
      7          6           0        2.509200    0.069700    1.230100
      8          6           0       -0.017000   -1.279400    0.008000
      9          6           0       -0.737100    1.026700   -0.002100
     10          6           0       -2.068700    0.610900    0.000600
     11          6           0       -1.348500   -1.695100    0.010700
     12          6           0       -2.374400   -0.749900    0.006900
     13          1           0        2.799500    2.429800   -0.022200
     14          1           0        1.298700    2.520100   -0.908300
     15          1           0        1.310500    2.531100    0.889200
     16          1           0        1.869300    0.234600   -2.165000
     17          1           0        3.421300    0.467600   -1.357000
     18          1           0        2.603700   -1.076600   -1.235200
     19          1           0        3.515800    0.504800    1.238300
     20          1           0        2.009300    0.372900    2.157700
     21          1           0        2.635600   -1.015700    1.271000
     22          1           0       -0.579400    2.096400   -0.005700
     23          1           0       -1.601100   -2.752100    0.015500
     24          1           0       -3.407500   -1.086700    0.009300
     25          1           0        0.571400   -3.102000    0.014500
     26          1           0       -3.925000    1.069800    0.001600
 ---------------------------------------------------------------------
                    Distance matrix (angstroms):
                    1          2          3          4          5
     1  O    0.000000
     2  O    5.513332   0.000000
     3  C    2.857024   4.878986   0.000000
     4  C    2.396437   3.617791   1.547845   0.000000
     5  C    4.374924   4.857319   1.544257   2.530427   0.000000
     6  C    2.941797   5.847155   1.544238   2.530513   2.520506
     7  C    3.012216   5.897607   1.544541   2.583304   2.485790
     8  C    1.362616   4.150809   2.510587   1.367632   3.805680
     9  C    3.665922   2.386936   2.492273   1.368918   2.709461
    10  C    4.152292   1.361050   3.777383   2.369169   4.099882
    11  C    2.378854   3.658408   3.789357   2.368293   4.893844
    12  C    3.654061   2.386545   4.282828   2.735068   5.011295
    13  H    4.992296   5.937341   2.178425   3.487646   1.098280
    14  H    4.835507   4.569455   2.211653   2.826006   1.096671
    15  H    4.839649   4.579844   2.213297   2.832818   1.096778
    16  H    3.397470   5.546337   2.190941   2.718394   2.844785
    17  H    3.881808   6.716142   2.185575   3.485849   2.685999
    18  H    2.347491   6.365592   2.225067   2.904383   3.497945
    19  H    3.921563   6.779570   2.192705   3.532131   2.676274
    20  H    3.519678   5.639429   2.187450   2.808110   2.775727
    21  H    2.407362   6.376937   2.217110   2.921113   3.471070
    22  H    4.583298   2.553218   2.764191   2.189641   2.335219
    23  H    2.628926   4.529901   4.671118   3.363118   5.890412
    24  H    4.523364   2.641509   5.369416   3.821620   6.061303
    25  H    0.972521   5.894235   3.819693   3.184176   5.323583
    26  H    5.897771   0.972724   5.657532   4.281302   5.771356
                    6          7          8          9         10
     6  C    0.000000
     7  C    2.485567   0.000000
     8  C    3.039395   3.113725   0.000000
     9  C    3.558574   3.601754   2.415935   0.000000
    10  C    4.712482   4.770926   2.789760   1.395011   0.000000
    11  C    4.333693   4.413990   1.394886   2.789654   2.415870
    12  C    5.026545   5.100736   2.416135   2.416017   1.394729
    13  H    2.745910   2.687490   4.657440   3.804817   5.196950
    14  H    2.782450   3.470234   4.123939   2.682522   3.976245
    15  H    3.498934   2.758910   4.130215   2.692638   3.986950
    16  H    1.096566   3.458810   3.251500   3.478344   4.509908
    17  H    1.097003   2.771883   4.091105   4.409154   5.657182
    18  H    1.093064   2.720411   2.907704   4.135862   5.119197
    19  H    2.762775   1.096642   4.144597   4.460732   5.720996
    20  H    3.457170   1.096482   3.384848   3.554561   4.619503
    21  H    2.729686   1.093500   2.949745   4.143342   5.137138
    22  H    3.874797   3.895403   3.422354   1.081268   2.103512
    23  H    5.047187   5.131508   2.162932   3.876356   3.395385
    24  H    6.073967   6.151012   3.395972   3.405529   2.162015
    25  H    3.835822   3.910554   1.915236   4.331121   4.555870
    26  H    6.567912   6.626337   4.559742   3.188193   1.912182
                   11         12         13         14         15
    11  C    0.000000
    12  C    1.394951   0.000000
    13  H    5.849939   6.072938   0.000000
    14  H    5.061634   5.002215   1.745201   0.000000
    15  H    5.069794   5.012175   1.748723   1.797572   0.000000
    16  H    4.337240   4.867790   3.205584   2.669904   3.861905
    17  H    5.412843   6.077225   2.453274   2.986556   3.709302
    18  H    4.189832   5.141111   3.715447   3.840070   4.381888
    19  H    5.477954   6.146956   2.409890   3.685764   3.015147
    20  H    4.490106   5.010334   3.099551   3.809958   2.599085
    21  H    4.233556   5.173848   3.683843   4.363317   3.805450
    22  H    3.868754   3.365057   3.395349   2.126374   2.135774
    23  H    1.086774   2.146362   6.798440   6.087556   6.095323
    24  H    2.147006   1.086617   7.133976   5.999943   6.010177
    25  H    2.380210   3.769638   5.963773   5.743565   5.748320
    26  H    3.779300   2.390752   6.860690   5.497120   5.507603
                   16         17         18         19         20
    16  H    0.000000
    17  H    1.765179   0.000000
    18  H    1.767234   1.751530   0.000000
    19  H    3.790306   2.597286   3.074240   0.000000
    20  H    4.327177   3.788909   3.737129   1.769812   0.000000
    21  H    3.735848   3.118315   2.507143   1.757197   1.762583
    22  H    3.758325   4.525992   4.659584   4.566332   3.788419
    23  H    5.071354   6.121660   4.695944   6.187512   5.233511
    24  H    5.858159   7.135484   6.138681   7.209396   6.007310
    25  H    4.191380   4.769170   3.129575   4.814165   4.328486
    26  H    6.242245   7.495103   6.982881   7.564004   6.352193
                   21         22         23         24         25
    21  H    0.000000
    22  H    4.653102   0.000000
    23  H    4.747735   4.955025   0.000000
    24  H    6.173815   4.257993   2.456965   0.000000
    25  H    3.192548   5.324294   2.200497   4.460169   0.000000
    26  H    7.000154   3.499571   4.472988   2.217737   6.133653
                   26
    26  H    0.000000
 Stoichiometry    C10H14O2
 Framework group  C1[X(C10H14O2)]
 Deg. of freedom    72
 Full point group                 C1      NOp   1
 Largest Abelian subgroup         C1      NOp   1
 Largest concise Abelian subgroup C1      NOp   1
                         Standard orientation:                         
 ---------------------------------------------------------------------
 Center     Atomic      Atomic             Coordinates (Angstroms)
 Number     Number       Type             X           Y           Z
 ---------------------------------------------------------------------
      1          8           0        0.886172    2.233996   -0.012541
      2          8           0       -3.166340   -1.504158    0.000804
      3          6           0        1.614138   -0.528692    0.001731
      4          6           0        0.143954   -0.044583   -0.002627
      5          6           0        1.657628   -2.072312    0.010421
      6          6           0        2.340360    0.011746    1.252811
      7          6           0        2.416682   -0.056685   -1.230641
      8          6           0       -0.105979    1.300000   -0.009628
      9          6           0       -0.832367   -1.004122    0.001703
     10          6           0       -2.162828   -0.584693   -0.001400
     11          6           0       -1.436340    1.719328   -0.012731
     12          6           0       -2.464815    0.776932   -0.008518
     13          1           0        2.700390   -2.416850    0.023046
     14          1           0        1.199241   -2.502549    0.909011
     15          1           0        1.211231   -2.514611   -0.888481
     16          1           0        1.775918   -0.217894    2.164473
     17          1           0        3.327376   -0.455589    1.356799
     18          1           0        2.514005    1.090765    1.234014
     19          1           0        3.422092   -0.494533   -1.238467
     20          1           0        1.916070   -0.359052   -2.158130
     21          1           0        2.546047    1.028343   -1.272147
     22          1           0       -0.677586   -2.074246    0.005935
     23          1           0       -1.686056    2.777010   -0.018168
     24          1           0       -3.496992    1.116547   -0.011239
     25          1           0        0.487390    3.120984   -0.017099
     26          1           0       -4.020373   -1.038529   -0.002368
 ---------------------------------------------------------------------
 Rotational constants (GHZ):           1.4441213           0.7486309           0.5518618
 Standard basis: 6-311++G(d,p) (5D, 7F)
 There are   374 symmetry adapted cartesian basis functions of A   symmetry.
 There are   362 symmetry adapted basis functions of A   symmetry.
   362 basis functions,   558 primitive gaussians,   374 cartesian basis functions
    45 alpha electrons       45 beta electrons
       nuclear repulsion energy       725.3447135742 Hartrees.
 NAtoms=   26 NActive=   26 NUniq=   26 SFac= 1.00D+00 NAtFMM=   60 NAOKFM=F Big=F
 Integral buffers will be    131072 words long.
 Raffenetti 2 integral format.
 Two-electron integral symmetry is turned on.
 R6APFD:  NTU= -4 IXU= 1 FactS= 1.050
 Nuclear repulsion after empirical dispersion term =      725.3242708975 Hartrees.
 One-electron integrals computed using PRISM.
 NBasis=   362 RedAO= T EigKep=  1.28D-06  NBF=   362
 NBsUse=   360 1.00D-06 EigRej=  5.55D-07 NBFU=   360
 ExpMin= 3.60D-02 ExpMax= 8.59D+03 ExpMxC= 1.30D+03 IAcc=3 IRadAn=         5 AccDes= 0.00D+00
 Harris functional with IExCor= 1009 and IRadAn=       5 diagonalized for initial guess.
 HarFok:  IExCor= 1009 AccDes= 0.00D+00 IRadAn=         5 IDoV= 1 UseB2=F ITyADJ=14
 ICtDFT=  3500011 ScaDFX=  1.000000  1.000000  1.000000  1.000000
 FoFCou: FMM=F IPFlag=           0 FMFlag=      100000 FMFlg1=           0
         NFxFlg=           0 DoJE=T BraDBF=F KetDBF=T FulRan=T
         wScrn=  0.000000 ICntrl=       500 IOpCl=  0 I1Cent=   200000004 NGrid=           0
         NMat0=    1 NMatS0=      1 NMatT0=    0 NMatD0=    1 NMtDS0=    0 NMtDT0=    0
 Petite list used in FoFCou.
 Requested convergence on RMS density matrix=1.00D-08 within  32 cycles.
 Requested convergence on MAX density matrix=1.00D-06.
 Requested convergence on             energy=1.00D-06.
 No special actions if energy rises.
 SCF Done:  E(RM08HX) =  -539.949346303     A.U. after   15 cycles
            NFock= 15  Conv=0.36D-08     -V/T= 2.0046
 QCSCF skips out because SCF is already converged.

 **********************************************************************

            Population analysis using the SCF Density.

 **********************************************************************

 Orbital symmetries:
       Occupied  (A) (A) (A) (A) (A) (A) (A) (A) (A) (A) (A) (A)
                 (A) (A) (A) (A) (A) (A) (A) (A) (A) (A) (A) (A)
                 (A) (A) (A) (A) (A) (A) (A) (A) (A) (A) (A) (A)
                 (A) (A) (A) (A) (A) (A) (A) (A) (A)
       Virtual   (A) (A) (A) (A) (A) (A) (A) (A) (A) (A) (A) (A)
                 (A) (A) (A) (A) (A) (A) (A) (A) (A) (A) (A) (A)
                 (A) (A) (A) (A) (A) (A) (A) (A) (A) (A) (A) (A)
                 (A) (A) (A) (A) (A) (A) (A) (A) (A) (A) (A) (A)
                 (A) (A) (A) (A) (A) (A) (A) (A) (A) (A) (A) (A)
                 (A) (A) (A) (A) (A) (A) (A) (A) (A) (A) (A) (A)
                 (A) (A) (A) (A) (A) (A) (A) (A) (A) (A) (A) (A)
                 (A) (A) (A) (A) (A) (A) (A) (A) (A) (A) (A) (A)
                 (A) (A) (A) (A) (A) (A) (A) (A) (A) (A) (A) (A)
                 (A) (A) (A) (A) (A) (A) (A) (A) (A) (A) (A) (A)
                 (A) (A) (A) (A) (A) (A) (A) (A) (A) (A) (A) (A)
                 (A) (A) (A) (A) (A) (A) (A) (A) (A) (A) (A) (A)
                 (A) (A) (A) (A) (A) (A) (A) (A) (A) (A) (A) (A)
                 (A) (A) (A) (A) (A) (A) (A) (A) (A) (A) (A) (A)
                 (A) (A) (A) (A) (A) (A) (A) (A) (A) (A) (A) (A)
                 (A) (A) (A) (A) (A) (A) (A) (A) (A) (A) (A) (A)
                 (A) (A) (A) (A) (A) (A) (A) (A) (A) (A) (A) (A)
                 (A) (A) (A) (A) (A) (A) (A) (A) (A) (A) (A) (A)
                 (A) (A) (A) (A) (A) (A) (A) (A) (A) (A) (A) (A)
                 (A) (A) (A) (A) (A) (A) (A) (A) (A) (A) (A) (A)
                 (A) (A) (A) (A) (A) (A) (A) (A) (A) (A) (A) (A)
                 (A) (A) (A) (A) (A) (A) (A) (A) (A) (A) (A) (A)
                 (A) (A) (A) (A) (A) (A) (A) (A) (A) (A) (A) (A)
                 (A) (A) (A) (A) (A) (A) (A) (A) (A) (A) (A) (A)
                 (A) (A) (A) (A) (A) (A) (A) (A) (A) (A) (A) (A)
                 (A) (A) (A) (A) (A) (A) (A) (A) (A) (A) (A) (A)
                 (A) (A) (A)
 The electronic state is 1-A.
 Alpha  occ. eigenvalues --  -19.64190 -19.63876 -10.59243 -10.59018 -10.54717
 Alpha  occ. eigenvalues --  -10.54195 -10.53889 -10.53835 -10.52946 -10.51176
 Alpha  occ. eigenvalues --  -10.50486 -10.50370  -1.18769  -1.18372  -0.97687
 Alpha  occ. eigenvalues --   -0.91912  -0.85169  -0.83658  -0.77877  -0.76910
 Alpha  occ. eigenvalues --   -0.72589  -0.71236  -0.65370  -0.63415  -0.59846
 Alpha  occ. eigenvalues --   -0.57641  -0.52735  -0.52002  -0.51532  -0.51154
 Alpha  occ. eigenvalues --   -0.49965  -0.49579  -0.48271  -0.47651  -0.44711
 Alpha  occ. eigenvalues --   -0.44123  -0.43596  -0.42336  -0.41988  -0.39257
 Alpha  occ. eigenvalues --   -0.38405  -0.37948  -0.37007  -0.31306  -0.26354
 Alpha virt. eigenvalues --   -0.03387  -0.02455  -0.01790  -0.00393   0.00045
 Alpha virt. eigenvalues --    0.00136   0.00352   0.01144   0.02063   0.02494
 Alpha virt. eigenvalues --    0.02609   0.02975   0.03962   0.04497   0.05359
 Alpha virt. eigenvalues --    0.05773   0.06227   0.06386   0.07033   0.07118
 Alpha virt. eigenvalues --    0.08301   0.09371   0.09590   0.10133   0.10228
 Alpha virt. eigenvalues --    0.10866   0.11079   0.11905   0.12502   0.12564
 Alpha virt. eigenvalues --    0.12809   0.13252   0.13656   0.13737   0.14333
 Alpha virt. eigenvalues --    0.14472   0.14935   0.14974   0.16199   0.16260
 Alpha virt. eigenvalues --    0.16369   0.16841   0.17920   0.18026   0.18408
 Alpha virt. eigenvalues --    0.18920   0.19777   0.20080   0.20523   0.21202
 Alpha virt. eigenvalues --    0.21713   0.21905   0.22417   0.22633   0.23002
 Alpha virt. eigenvalues --    0.23745   0.24542   0.26223   0.26945   0.27837
 Alpha virt. eigenvalues --    0.28320   0.28578   0.28837   0.29019   0.29883
 Alpha virt. eigenvalues --    0.30188   0.30289   0.30367   0.31257   0.32397
 Alpha virt. eigenvalues --    0.32671   0.33325   0.34173   0.34775   0.35250
 Alpha virt. eigenvalues --    0.35510   0.36092   0.37099   0.38214   0.38895
 Alpha virt. eigenvalues --    0.40193   0.41838   0.42234   0.43462   0.44903
 Alpha virt. eigenvalues --    0.45783   0.47281   0.47933   0.51518   0.53739
 Alpha virt. eigenvalues --    0.53869   0.54283   0.55783   0.57889   0.58854
 Alpha virt. eigenvalues --    0.60075   0.60369   0.61140   0.61758   0.62423
 Alpha virt. eigenvalues --    0.62724   0.63818   0.64842   0.65091   0.65963
 Alpha virt. eigenvalues --    0.67717   0.68074   0.68592   0.70050   0.70629
 Alpha virt. eigenvalues --    0.70846   0.72064   0.72502   0.72681   0.74587
 Alpha virt. eigenvalues --    0.75163   0.75355   0.75811   0.77970   0.79021
 Alpha virt. eigenvalues --    0.80169   0.80905   0.82120   0.82641   0.82882
 Alpha virt. eigenvalues --    0.85310   0.86347   0.86982   0.90832   0.92510
 Alpha virt. eigenvalues --    0.93386   0.94395   0.95618   0.96982   0.97961
 Alpha virt. eigenvalues --    0.99598   1.02569   1.03266   1.03866   1.06664
 Alpha virt. eigenvalues --    1.08260   1.08718   1.11118   1.11520   1.13459
 Alpha virt. eigenvalues --    1.14526   1.19317   1.20079   1.21858   1.22684
 Alpha virt. eigenvalues --    1.23552   1.25758   1.27185   1.29660   1.30099
 Alpha virt. eigenvalues --    1.30989   1.33656   1.37428   1.44633   1.45308
 Alpha virt. eigenvalues --    1.46278   1.49411   1.50057   1.50578   1.51358
 Alpha virt. eigenvalues --    1.52473   1.54479   1.55243   1.56207   1.56352
 Alpha virt. eigenvalues --    1.57813   1.58110   1.61014   1.61577   1.63818
 Alpha virt. eigenvalues --    1.64680   1.65561   1.66600   1.67744   1.68276
 Alpha virt. eigenvalues --    1.70049   1.71188   1.72709   1.73156   1.73316
 Alpha virt. eigenvalues --    1.75064   1.77676   1.79346   1.80791   1.81352
 Alpha virt. eigenvalues --    1.82726   1.85485   1.86193   1.87316   1.88208
 Alpha virt. eigenvalues --    1.90195   1.90452   1.93438   1.95761   1.96763
 Alpha virt. eigenvalues --    1.98140   2.01390   2.01898   2.04507   2.05892
 Alpha virt. eigenvalues --    2.06268   2.06866   2.08683   2.10549   2.11284
 Alpha virt. eigenvalues --    2.12970   2.17693   2.17995   2.19421   2.20386
 Alpha virt. eigenvalues --    2.20943   2.26283   2.26889   2.27816   2.31650
 Alpha virt. eigenvalues --    2.37713   2.38962   2.40332   2.41783   2.46863
 Alpha virt. eigenvalues --    2.46999   2.50072   2.53448   2.54912   2.55151
 Alpha virt. eigenvalues --    2.57942   2.58993   2.59294   2.60259   2.60774
 Alpha virt. eigenvalues --    2.61850   2.65242   2.66535   2.66967   2.67950
 Alpha virt. eigenvalues --    2.68913   2.69338   2.70840   2.72246   2.73240
 Alpha virt. eigenvalues --    2.75502   2.77022   2.78338   2.79490   2.80660
 Alpha virt. eigenvalues --    2.82279   2.84589   2.87641   2.88419   2.90228
 Alpha virt. eigenvalues --    2.96980   2.99076   3.01656   3.03072   3.03703
 Alpha virt. eigenvalues --    3.11524   3.13185   3.17036   3.17100   3.20550
 Alpha virt. eigenvalues --    3.22686   3.23866   3.26591   3.27824   3.28229
 Alpha virt. eigenvalues --    3.32452   3.34309   3.45537   3.48646   3.52069
 Alpha virt. eigenvalues --    3.53457   3.63535   3.65989   3.72731   3.76214
 Alpha virt. eigenvalues --    3.81403   3.81944   3.82598   3.86360   3.87544
 Alpha virt. eigenvalues --    3.88705   3.92460   3.94983   3.99636   4.13070
 Alpha virt. eigenvalues --    4.20010   4.25471   4.28292   4.34311   4.39260
 Alpha virt. eigenvalues --    4.48288   4.94930   5.13762   5.16532   5.57179
 Alpha virt. eigenvalues --    5.64125   5.82477   5.90303  23.64476  23.88078
 Alpha virt. eigenvalues --   23.98208  24.04470  24.04694  24.05114  24.07433
 Alpha virt. eigenvalues --   24.14282  24.18116  24.29316  49.95875  49.99359
          Condensed to atoms (all electrons):
               1          2          3          4          5          6
     1  O    8.001225   0.000454   0.249435  -0.819069   0.004033  -0.087168
     2  O    0.000454   7.979547   0.006167   0.063092   0.011101  -0.002016
     3  C    0.249435   0.006167  17.200061  -9.993410  -0.875076  -0.858776
     4  C   -0.819069   0.063092  -9.993410  30.692493   0.752888   1.039202
     5  C    0.004033   0.011101  -0.875076   0.752888   6.999456  -0.328396
     6  C   -0.087168  -0.002016  -0.858776   1.039202  -0.328396   6.867032
     7  C   -0.077884  -0.001763  -0.735686   0.898411  -0.354572  -0.364332
     8  C    0.529547  -0.006572   4.084492  -8.244912  -0.502935  -0.419912
     9  C    0.017664  -0.226527  -3.761065   0.568361   0.225406   0.187244
    10  C    0.047727   0.000656  -0.278813  -6.116127  -0.596011   0.089330
    11  C    0.093855  -0.000087  -0.256208  -7.464918   0.309169  -0.354520
    12  C    0.037390   0.188521   1.014685   3.324568  -0.213431   0.027413
    13  H    0.000159   0.000292   0.005531   0.046854   0.397265  -0.028326
    14  H   -0.000439   0.000717   0.018386   0.055830   0.344512  -0.023159
    15  H   -0.000461   0.000753   0.019762   0.040506   0.350359   0.033835
    16  H    0.006532  -0.000011   0.144655  -0.141954   0.001141   0.309269
    17  H   -0.000939   0.000051  -0.036423   0.007303  -0.055407   0.394736
    18  H   -0.007009  -0.000068  -0.048891  -0.057509   0.021565   0.465647
    19  H   -0.001170   0.000045  -0.041175   0.021314  -0.044069  -0.011396
    20  H    0.005447  -0.000074   0.183462  -0.195536  -0.005734   0.017965
    21  H   -0.004499  -0.000077  -0.056223  -0.061709   0.018787  -0.042716
    22  H   -0.000694  -0.054115  -0.223875  -0.315547   0.054913  -0.008236
    23  H   -0.008277  -0.000517  -0.040528  -0.141768   0.010866  -0.003956
    24  H   -0.002943  -0.007434   0.017871   0.200543  -0.004923   0.000677
    25  H    0.182856  -0.000249  -0.012910   0.159582  -0.005438   0.012362
    26  H    0.000091   0.227895  -0.004601  -0.029762  -0.002593   0.000590
               7          8          9         10         11         12
     1  O   -0.077884   0.529547   0.017664   0.047727   0.093855   0.037390
     2  O   -0.001763  -0.006572  -0.226527   0.000656  -0.000087   0.188521
     3  C   -0.735686   4.084492  -3.761065  -0.278813  -0.256208   1.014685
     4  C    0.898411  -8.244912   0.568361  -6.116127  -7.464918   3.324568
     5  C   -0.354572  -0.502935   0.225406  -0.596011   0.309169  -0.213431
     6  C   -0.364332  -0.419912   0.187244   0.089330  -0.354520   0.027413
     7  C    6.860817  -0.364456   0.114296   0.047412  -0.323852   0.047755
     8  C   -0.364456  13.811952  -0.996730   1.584587  -1.323592  -1.428601
     9  C    0.114296  -0.996730  11.483679   1.079154   1.961464  -4.351885
    10  C    0.047412   1.584587   1.079154  13.721007   0.615865  -3.146682
    11  C   -0.323852  -1.323592   1.961464   0.615865  15.442693  -3.038482
    12  C    0.047755  -1.428601  -4.351885  -3.146682  -3.038482  13.140260
    13  H   -0.031297  -0.028137   0.017028  -0.032341   0.003056   0.005225
    14  H    0.037027  -0.023682  -0.030440  -0.010970  -0.018892   0.020647
    15  H   -0.019349  -0.016464  -0.032400  -0.005587  -0.018120   0.019244
    16  H    0.022362   0.026132  -0.011849  -0.008320   0.008653   0.007425
    17  H   -0.012696   0.047232  -0.004782   0.006413   0.003214   0.000521
    18  H   -0.038257   0.021393   0.006832   0.012188  -0.014643  -0.003801
    19  H    0.389912   0.033632  -0.003584   0.005315  -0.000620   0.001623
    20  H    0.320359   0.047948  -0.021829  -0.009143   0.017142   0.003624
    21  H    0.464788   0.032672   0.007331   0.012468  -0.011757  -0.001960
    22  H   -0.014223   0.162994   0.769960   0.062242   0.193137  -0.428664
    23  H   -0.005411  -0.327040   0.081264   0.093500   0.691213  -0.046352
    24  H    0.001033   0.020372  -0.115645  -0.334995  -0.154011   0.693181
    25  H    0.015537   0.121731  -0.011858   0.001101  -0.228936   0.001302
    26  H    0.000356   0.017676   0.098045   0.268026   0.016181  -0.358666
              13         14         15         16         17         18
     1  O    0.000159  -0.000439  -0.000461   0.006532  -0.000939  -0.007009
     2  O    0.000292   0.000717   0.000753  -0.000011   0.000051  -0.000068
     3  C    0.005531   0.018386   0.019762   0.144655  -0.036423  -0.048891
     4  C    0.046854   0.055830   0.040506  -0.141954   0.007303  -0.057509
     5  C    0.397265   0.344512   0.350359   0.001141  -0.055407   0.021565
     6  C   -0.028326  -0.023159   0.033835   0.309269   0.394736   0.465647
     7  C   -0.031297   0.037027  -0.019349   0.022362  -0.012696  -0.038257
     8  C   -0.028137  -0.023682  -0.016464   0.026132   0.047232   0.021393
     9  C    0.017028  -0.030440  -0.032400  -0.011849  -0.004782   0.006832
    10  C   -0.032341  -0.010970  -0.005587  -0.008320   0.006413   0.012188
    11  C    0.003056  -0.018892  -0.018120   0.008653   0.003214  -0.014643
    12  C    0.005225   0.020647   0.019244   0.007425   0.000521  -0.003801
    13  H    0.445488  -0.029070  -0.029493  -0.000448  -0.003347   0.002782
    14  H   -0.029070   0.532560  -0.051249  -0.000512   0.008380  -0.001249
    15  H   -0.029493  -0.051249   0.531311   0.001381  -0.000887  -0.003859
    16  H   -0.000448  -0.000512   0.001381   0.479132  -0.028052  -0.028029
    17  H   -0.003347   0.008380  -0.000887  -0.028052   0.521097  -0.054629
    18  H    0.002782  -0.001249  -0.003859  -0.028029  -0.054629   0.500173
    19  H   -0.001166  -0.000619   0.007811   0.001696  -0.019706   0.008845
    20  H   -0.001161   0.001068  -0.000723  -0.004668   0.003431   0.001887
    21  H    0.002161  -0.003384  -0.000928   0.003556   0.006782  -0.018019
    22  H    0.000561  -0.019010  -0.017866  -0.001043  -0.000902   0.001474
    23  H   -0.000036  -0.000447  -0.000396  -0.000487  -0.000023   0.000491
    24  H    0.000082   0.000561   0.000496   0.000120  -0.000004  -0.000216
    25  H   -0.000092   0.000133   0.000119   0.000841  -0.000042  -0.003722
    26  H   -0.000173  -0.000114  -0.000068  -0.000126   0.000029   0.000027
              19         20         21         22         23         24
     1  O   -0.001170   0.005447  -0.004499  -0.000694  -0.008277  -0.002943
     2  O    0.000045  -0.000074  -0.000077  -0.054115  -0.000517  -0.007434
     3  C   -0.041175   0.183462  -0.056223  -0.223875  -0.040528   0.017871
     4  C    0.021314  -0.195536  -0.061709  -0.315547  -0.141768   0.200543
     5  C   -0.044069  -0.005734   0.018787   0.054913   0.010866  -0.004923
     6  C   -0.011396   0.017965  -0.042716  -0.008236  -0.003956   0.000677
     7  C    0.389912   0.320359   0.464788  -0.014223  -0.005411   0.001033
     8  C    0.033632   0.047948   0.032672   0.162994  -0.327040   0.020372
     9  C   -0.003584  -0.021829   0.007331   0.769960   0.081264  -0.115645
    10  C    0.005315  -0.009143   0.012468   0.062242   0.093500  -0.334995
    11  C   -0.000620   0.017142  -0.011757   0.193137   0.691213  -0.154011
    12  C    0.001623   0.003624  -0.001960  -0.428664  -0.046352   0.693181
    13  H   -0.001166  -0.001161   0.002161   0.000561  -0.000036   0.000082
    14  H   -0.000619   0.001068  -0.003384  -0.019010  -0.000447   0.000561
    15  H    0.007811  -0.000723  -0.000928  -0.017866  -0.000396   0.000496
    16  H    0.001696  -0.004668   0.003556  -0.001043  -0.000487   0.000120
    17  H   -0.019706   0.003431   0.006782  -0.000902  -0.000023  -0.000004
    18  H    0.008845   0.001887  -0.018019   0.001474   0.000491  -0.000216
    19  H    0.526511  -0.031064  -0.052740  -0.001157  -0.000049   0.000006
    20  H   -0.031064   0.485255  -0.026021  -0.000492  -0.000347   0.000024
    21  H   -0.052740  -0.026021   0.489345   0.001256   0.000184  -0.000146
    22  H   -0.001157  -0.000492   0.001256   0.526952   0.005745  -0.012005
    23  H   -0.000049  -0.000347   0.000184   0.005745   0.460666  -0.012641
    24  H    0.000006   0.000024  -0.000146  -0.012005  -0.012641   0.486008
    25  H    0.000167   0.000523  -0.003392   0.000439  -0.005373   0.001116
    26  H    0.000028  -0.000124   0.000016   0.013788   0.000997  -0.008422
              25         26
     1  O    0.182856   0.000091
     2  O   -0.000249   0.227895
     3  C   -0.012910  -0.004601
     4  C    0.159582  -0.029762
     5  C   -0.005438  -0.002593
     6  C    0.012362   0.000590
     7  C    0.015537   0.000356
     8  C    0.121731   0.017676
     9  C   -0.011858   0.098045
    10  C    0.001101   0.268026
    11  C   -0.228936   0.016181
    12  C    0.001302  -0.358666
    13  H   -0.000092  -0.000173
    14  H    0.000133  -0.000114
    15  H    0.000119  -0.000068
    16  H    0.000841  -0.000126
    17  H   -0.000042   0.000029
    18  H   -0.003722   0.000027
    19  H    0.000167   0.000028
    20  H    0.000523  -0.000124
    21  H   -0.003392   0.000016
    22  H    0.000439   0.013788
    23  H   -0.005373   0.000997
    24  H    0.001116  -0.008422
    25  H    0.497032  -0.000029
    26  H   -0.000029   0.464181
 Mulliken charges:
               1
     1  O   -0.165861
     2  O   -0.179779
     3  C    0.279150
     4  C    1.711274
     5  C   -0.512879
     6  C   -0.912392
     7  C   -0.876286
     8  C   -0.859329
     9  C   -1.049134
    10  C   -1.108002
    11  C   -0.147007
    12  C    0.485136
    13  H    0.258604
    14  H    0.193418
    15  H    0.192274
    16  H    0.212605
    17  H    0.218653
    18  H    0.236598
    19  H    0.211609
    20  H    0.208784
    21  H    0.244227
    22  H    0.304369
    23  H    0.248719
    24  H    0.231293
    25  H    0.277200
    26  H    0.296754
 Sum of Mulliken charges =  -0.00000
 Mulliken charges with hydrogens summed into heavy atoms:
               1
     1  O    0.111339
     2  O    0.116975
     3  C    0.279150
     4  C    1.711274
     5  C    0.131418
     6  C   -0.244537
     7  C   -0.211665
     8  C   -0.859329
     9  C   -0.744765
    10  C   -1.108002
    11  C    0.101712
    12  C    0.716429
 Electronic spatial extent (au):  <R**2>=           2152.7617
 Charge=              0.0000 electrons
 Dipole moment (field-independent basis, Debye):
    X=             -1.5280    Y=              2.1727    Z=             -0.0196  Tot=              2.6562
 Quadrupole moment (field-independent basis, Debye-Ang):
   XX=            -65.9554   YY=            -67.6023   ZZ=            -78.1169
   XY=             -5.9206   XZ=              0.0041   YZ=              0.0044
 Traceless Quadrupole moment (field-independent basis, Debye-Ang):
   XX=              4.6028   YY=              2.9559   ZZ=             -7.5587
   XY=             -5.9206   XZ=              0.0041   YZ=              0.0044
 Octapole moment (field-independent basis, Debye-Ang**2):
  XXX=            -65.5226  YYY=             46.9281  ZZZ=             -0.0645  XYY=              1.9336
  XXY=              7.1534  XXZ=             -0.2293  XZZ=              0.6584  YZZ=             -1.1473
  YYZ=             -0.3429  XYZ=              0.1235
 Hexadecapole moment (field-independent basis, Debye-Ang**3):
 XXXX=          -1467.6538 YYYY=           -739.0638 ZZZZ=           -271.2438 XXXY=              7.7863
 XXXZ=              0.4896 YYYX=              1.3210 YYYZ=             -0.7798 ZZZX=             -0.4881
 ZZZY=              0.2647 XXYY=           -469.2333 XXZZ=           -361.3662 YYZZ=           -197.5932
 XXYZ=              0.0207 YYXZ=              0.1400 ZZXY=             11.9807
 N-N= 7.253242708975D+02 E-N=-2.708386449075D+03  KE= 5.374826550748D+02
 R6APFD:  NTU= -4 IXU= 1 FactS= 1.050
 Calling FoFJK, ICntrl=      2127 FMM=F ISym2X=0 I1Cent= 0 IOpClX= 0 NMat=1 NMatS=1 NMatT=0.
 ***** Axes restored to original set *****
 -------------------------------------------------------------------
 Center     Atomic                   Forces (Hartrees/Bohr)
 Number     Number              X              Y              Z
 -------------------------------------------------------------------
      1        8           0.003663177   -0.011276180    0.000770665
      2        8          -0.010976776   -0.000186896   -0.000063615
      3        6           0.006247849    0.000578932   -0.001334857
      4        6           0.062476265    0.026178989    0.004117230
      5        6           0.012247237   -0.001421630   -0.003494931
      6        6           0.000400102    0.005363952   -0.006285484
      7        6          -0.006721991   -0.001773739    0.005811170
      8        6          -0.032161130   -0.029230575    0.000097170
      9        6          -0.040834131   -0.003220909    0.000145763
     10        6          -0.006931449   -0.009488244   -0.000099879
     11        6          -0.004286293    0.008864144   -0.000230604
     12        6           0.007770392   -0.003523646    0.000041077
     13        1           0.001698142   -0.003271518    0.000180114
     14        1          -0.003202540   -0.000827064    0.000593777
     15        1          -0.002968546   -0.001645410   -0.000567389
     16        1          -0.001268454    0.001033970   -0.000951902
     17        1           0.000763516    0.002916672    0.001736189
     18        1          -0.003814411   -0.000833582    0.003746717
     19        1          -0.000111781    0.002783869   -0.002808580
     20        1          -0.000621158    0.001552060    0.001299378
     21        1          -0.002723640   -0.001476157   -0.002837537
     22        1           0.005691723   -0.000103895    0.000110836
     23        1          -0.000061566   -0.003121490    0.000040809
     24        1          -0.002811296    0.000148691    0.000002551
     25        1           0.006349495    0.013562172    0.000019697
     26        1           0.012187263    0.008417485   -0.000038362
 -------------------------------------------------------------------
 Cartesian Forces:  Max     0.062476265 RMS     0.011157899

 GradGradGradGradGradGradGradGradGradGradGradGradGradGradGradGradGradGrad
 Berny optimization.
 FormGI is forming the generalized inverse of G from B-inverse, IUseBI=4.
 Internal  Forces:  Max     0.029560607 RMS     0.006114401
 Search for a local minimum.
 Step number   1 out of a maximum of  141
 All quantities printed in internal units (Hartrees-Bohrs-Radians)
 Mixed Optimization -- RFO/linear search
 Second derivative matrix not updated -- first step.
 ITU=  0
     Eigenvalues ---    0.00230   0.00230   0.00230   0.00230   0.01639
     Eigenvalues ---    0.02156   0.02157   0.02157   0.02164   0.02186
     Eigenvalues ---    0.02207   0.02225   0.02310   0.02356   0.02472
     Eigenvalues ---    0.04841   0.04982   0.05072   0.05085   0.05183
     Eigenvalues ---    0.05312   0.05424   0.05462   0.05570   0.14554
     Eigenvalues ---    0.15233   0.16000   0.16000   0.16000   0.16000
     Eigenvalues ---    0.16000   0.16000   0.16000   0.16000   0.16000
     Eigenvalues ---    0.16000   0.16000   0.16000   0.16000   0.16000
     Eigenvalues ---    0.22382   0.23492   0.24630   0.25000   0.25000
     Eigenvalues ---    0.25000   0.27835   0.28120   0.28145   0.28147
     Eigenvalues ---    0.33873   0.34016   0.34041   0.34053   0.34056
     Eigenvalues ---    0.34065   0.34074   0.34411   0.34461   0.35188
     Eigenvalues ---    0.35207   0.35842   0.42719   0.43427   0.46467
     Eigenvalues ---    0.46484   0.49709   0.50911   0.52422   0.52736
     Eigenvalues ---    0.52824   0.52865
 RFO step:  Lambda=-1.66676997D-02 EMin= 2.30000000D-03
 Linear search not attempted -- first point.
 Iteration  1 RMS(Cart)=  0.07702361 RMS(Int)=  0.00168894
 Iteration  2 RMS(Cart)=  0.00269478 RMS(Int)=  0.00023877
 Iteration  3 RMS(Cart)=  0.00000220 RMS(Int)=  0.00023877
 Iteration  4 RMS(Cart)=  0.00000000 RMS(Int)=  0.00023877
 Variable       Old X    -DE/DX   Delta X   Delta X   Delta X     New X
                                 (Linear)    (Quad)   (Total)
    R1        2.57497   0.00571   0.00000   0.01055   0.01055   2.58552
    R2        1.83780  -0.01498   0.00000  -0.02746  -0.02746   1.81034
    R3        2.57201   0.00468   0.00000   0.00860   0.00860   2.58062
    R4        1.83818  -0.01472   0.00000  -0.02702  -0.02702   1.81117
    R5        2.92500   0.00086   0.00000   0.00293   0.00293   2.92793
    R6        2.91822  -0.00690   0.00000  -0.02314  -0.02314   2.89508
    R7        2.91819  -0.00340   0.00000  -0.01140  -0.01140   2.90679
    R8        2.91876  -0.00445   0.00000  -0.01493  -0.01493   2.90383
    R9        2.58445   0.02956   0.00000   0.05841   0.05876   2.64321
   R10        2.58688   0.02344   0.00000   0.04662   0.04699   2.63387
   R11        2.07545   0.00059   0.00000   0.00167   0.00167   2.07711
   R12        2.07241   0.00052   0.00000   0.00147   0.00147   2.07388
   R13        2.07261   0.00008   0.00000   0.00022   0.00022   2.07283
   R14        2.07221   0.00166   0.00000   0.00465   0.00465   2.07686
   R15        2.07304   0.00176   0.00000   0.00493   0.00493   2.07797
   R16        2.06559   0.00029   0.00000   0.00080   0.00080   2.06639
   R17        2.07235   0.00098   0.00000   0.00275   0.00275   2.07510
   R18        2.07205   0.00181   0.00000   0.00507   0.00507   2.07712
   R19        2.06642   0.00104   0.00000   0.00289   0.00289   2.06930
   R20        2.63595   0.00276   0.00000   0.00628   0.00625   2.64220
   R21        2.63619   0.00179   0.00000   0.00317   0.00320   2.63939
   R22        2.04330   0.00073   0.00000   0.00193   0.00193   2.04523
   R23        2.63566  -0.00153   0.00000  -0.00617  -0.00652   2.62914
   R24        2.63608  -0.00343   0.00000  -0.00955  -0.00992   2.62616
   R25        2.05371   0.00305   0.00000   0.00828   0.00828   2.06199
   R26        2.05341   0.00263   0.00000   0.00712   0.00712   2.06053
    A1        1.90350   0.00036   0.00000   0.00201   0.00201   1.90551
    A2        1.90071   0.00293   0.00000   0.01656   0.01656   1.91727
    A3        1.91707   0.00911   0.00000   0.06388   0.06399   1.98107
    A4        1.91719  -0.00063   0.00000  -0.00335  -0.00261   1.91457
    A5        1.97763  -0.00825   0.00000  -0.05594  -0.05588   1.92176
    A6        1.90924  -0.00769   0.00000  -0.04277  -0.04278   1.86646
    A7        1.87060  -0.00064   0.00000  -0.00237  -0.00149   1.86911
    A8        1.87037   0.00781   0.00000   0.03869   0.03850   1.90887
    A9        2.07269   0.00313   0.00000   0.00748   0.00711   2.07980
   A10        2.04675   0.02358   0.00000   0.08418   0.08381   2.13055
   A11        2.16375  -0.02671   0.00000  -0.09166  -0.09092   2.07283
   A12        1.91812  -0.00384   0.00000  -0.01558  -0.01559   1.90253
   A13        1.96599  -0.00074   0.00000  -0.00663  -0.00678   1.95922
   A14        1.96821  -0.00204   0.00000  -0.01538  -0.01556   1.95265
   A15        1.83834   0.00340   0.00000   0.02656   0.02658   1.86492
   A16        1.84351   0.00363   0.00000   0.02496   0.02492   1.86843
   A17        1.92114   0.00018   0.00000  -0.00913  -0.00940   1.91174
   A18        1.93713   0.00054   0.00000   0.00232   0.00226   1.93939
   A19        1.92926  -0.00248   0.00000  -0.01214  -0.01224   1.91702
   A20        1.98914  -0.00640   0.00000  -0.03744  -0.03762   1.95152
   A21        1.87036   0.00136   0.00000   0.01015   0.01017   1.88053
   A22        1.87842   0.00272   0.00000   0.01204   0.01191   1.89033
   A23        1.85379   0.00494   0.00000   0.02916   0.02894   1.88273
   A24        1.93912  -0.00441   0.00000  -0.02648  -0.02667   1.91245
   A25        1.93201   0.00114   0.00000   0.00743   0.00748   1.93950
   A26        1.97685  -0.00451   0.00000  -0.02500  -0.02516   1.95169
   A27        1.87805   0.00154   0.00000   0.00771   0.00774   1.88579
   A28        1.86235   0.00463   0.00000   0.02444   0.02405   1.88640
   A29        1.87081   0.00219   0.00000   0.01514   0.01521   1.88602
   A30        2.14223  -0.01510   0.00000  -0.05937  -0.05954   2.08269
   A31        2.08103   0.00726   0.00000   0.02448   0.02431   2.10534
   A32        2.05993   0.00785   0.00000   0.03489   0.03521   2.09514
   A33        2.05946   0.01211   0.00000   0.05387   0.05427   2.11373
   A34        2.20389  -0.01182   0.00000  -0.05957  -0.05977   2.14412
   A35        2.01983  -0.00029   0.00000   0.00570   0.00550   2.02533
   A36        2.09448  -0.01106   0.00000  -0.03771  -0.03754   2.05694
   A37        2.09427   0.00952   0.00000   0.03946   0.03962   2.13389
   A38        2.09444   0.00154   0.00000  -0.00175  -0.00208   2.09236
   A39        2.09449   0.00455   0.00000   0.01422   0.01381   2.10830
   A40        2.10799  -0.00296   0.00000  -0.01101  -0.01080   2.09719
   A41        2.08070  -0.00159   0.00000  -0.00321  -0.00301   2.07769
   A42        2.09430   0.00065   0.00000  -0.00958  -0.01032   2.08399
   A43        2.10692  -0.00136   0.00000  -0.00106  -0.00069   2.10623
   A44        2.08196   0.00071   0.00000   0.01064   0.01101   2.09297
    D1       -3.14110  -0.00023   0.00000  -0.00574  -0.00563   3.13645
    D2       -0.00047   0.00009   0.00000   0.00206   0.00195   0.00148
    D3       -3.14110   0.00000   0.00000   0.00010   0.00011  -3.14098
    D4       -0.00096   0.00001   0.00000   0.00021   0.00019  -0.00076
    D5        3.14092  -0.00087   0.00000   0.02286   0.02340  -3.11886
    D6        0.00004  -0.00089   0.00000   0.02192   0.02250   0.02254
    D7        1.04016   0.00329   0.00000   0.03760   0.03760   1.07776
    D8       -2.10071   0.00327   0.00000   0.03666   0.03669  -2.06403
    D9       -1.05095  -0.00075   0.00000   0.02770   0.02712  -1.02383
   D10        2.09136  -0.00077   0.00000   0.02677   0.02621   2.11757
   D11       -3.13237  -0.00185   0.00000  -0.01536  -0.01502   3.13580
   D12       -1.08849  -0.00057   0.00000   0.00350   0.00375  -1.08474
   D13        1.09909  -0.00258   0.00000  -0.02667  -0.02629   1.07280
   D14       -1.02680  -0.00179   0.00000  -0.00656  -0.00679  -1.03359
   D15        1.01708  -0.00051   0.00000   0.01230   0.01198   1.02906
   D16       -3.07853  -0.00251   0.00000  -0.01787  -0.01806  -3.09659
   D17        0.99544   0.00311   0.00000   0.01576   0.01570   1.01114
   D18        3.03932   0.00439   0.00000   0.03462   0.03447   3.07379
   D19       -1.05628   0.00239   0.00000   0.00445   0.00443  -1.05186
   D20        0.90466   0.00374   0.00000   0.04057   0.04067   0.94533
   D21        2.97756   0.00419   0.00000   0.04689   0.04688   3.02444
   D22       -1.21942   0.00440   0.00000   0.05017   0.05025  -1.16917
   D23       -1.20083  -0.00226   0.00000  -0.00919  -0.00928  -1.21011
   D24        0.87206  -0.00182   0.00000  -0.00287  -0.00306   0.86900
   D25        2.95827  -0.00161   0.00000   0.00040   0.00030   2.95857
   D26        3.05996  -0.00178   0.00000  -0.00535  -0.00524   3.05472
   D27       -1.15033  -0.00134   0.00000   0.00097   0.00098  -1.14935
   D28        0.93588  -0.00113   0.00000   0.00424   0.00434   0.94022
   D29       -3.04996  -0.00243   0.00000  -0.03293  -0.03300  -3.08296
   D30       -0.96437  -0.00262   0.00000  -0.03564  -0.03582  -1.00019
   D31        1.13732  -0.00210   0.00000  -0.02803  -0.02833   1.10899
   D32       -0.93231   0.00341   0.00000   0.01069   0.01085  -0.92146
   D33        1.15328   0.00322   0.00000   0.00798   0.00804   1.16132
   D34       -3.02821   0.00374   0.00000   0.01559   0.01552  -3.01269
   D35        1.11558  -0.00189   0.00000  -0.02062  -0.02038   1.09520
   D36       -3.08201  -0.00209   0.00000  -0.02334  -0.02320  -3.10521
   D37       -0.98032  -0.00156   0.00000  -0.01573  -0.01572  -0.99603
   D38       -0.00035   0.00052   0.00000   0.01265   0.01249   0.01215
   D39       -3.14099   0.00021   0.00000   0.00495   0.00496  -3.13603
   D40        3.14048   0.00056   0.00000   0.01374   0.01345  -3.12926
   D41       -0.00016   0.00025   0.00000   0.00603   0.00592   0.00575
   D42        3.14100  -0.00027   0.00000  -0.00626  -0.00631   3.13469
   D43       -0.00226  -0.00008   0.00000  -0.00179  -0.00184  -0.00410
   D44        0.00016  -0.00030   0.00000  -0.00730  -0.00726  -0.00710
   D45        3.14008  -0.00011   0.00000  -0.00284  -0.00279   3.13730
   D46       -3.14051  -0.00033   0.00000  -0.00846  -0.00878   3.13389
   D47        0.00080  -0.00025   0.00000  -0.00631  -0.00654  -0.00574
   D48        0.00016  -0.00005   0.00000  -0.00108  -0.00120  -0.00104
   D49        3.14148   0.00004   0.00000   0.00107   0.00105  -3.14066
   D50        3.13998   0.00016   0.00000   0.00376   0.00394  -3.13926
   D51       -0.00016   0.00014   0.00000   0.00362   0.00382   0.00367
   D52       -0.00012  -0.00000   0.00000  -0.00016  -0.00017  -0.00029
   D53       -3.14026  -0.00001   0.00000  -0.00031  -0.00029  -3.14055
   D54       -3.13997   0.00004   0.00000   0.00082   0.00096  -3.13902
   D55        0.00119  -0.00004   0.00000  -0.00125  -0.00125  -0.00005
   D56        0.00016   0.00004   0.00000   0.00090   0.00101   0.00118
   D57        3.14133  -0.00005   0.00000  -0.00117  -0.00119   3.14014
   D58       -0.00017  -0.00009   0.00000  -0.00220  -0.00230  -0.00247
   D59       -3.14134  -0.00000   0.00000  -0.00016  -0.00011  -3.14145
   D60       -3.14149  -0.00017   0.00000  -0.00432  -0.00452   3.13718
   D61        0.00052  -0.00009   0.00000  -0.00227  -0.00233  -0.00181
         Item               Value     Threshold  Converged?
 Maximum Force            0.029561     0.000450     NO 
 RMS     Force            0.006114     0.000300     NO 
 Maximum Displacement     0.292212     0.001800     NO 
 RMS     Displacement     0.076810     0.001200     NO 
 Predicted change in Energy=-8.966587D-03
 GradGradGradGradGradGradGradGradGradGradGradGradGradGradGradGradGradGrad

                          Input orientation:                          
 ---------------------------------------------------------------------
 Center     Atomic      Atomic             Coordinates (Angstroms)
 Number     Number       Type             X           Y           Z
 ---------------------------------------------------------------------
      1          8           0        1.006709   -2.158534    0.057329
      2          8           0       -3.126220    1.501708   -0.023296
      3          6           0        1.727258    0.575743   -0.013834
      4          6           0        0.250823    0.106125    0.001157
      5          6           0        1.883776    2.099738   -0.012530
      6          6           0        2.424179    0.054698   -1.282257
      7          6           0        2.463034    0.045110    1.226458
      8          6           0       -0.028326   -1.264173    0.029241
      9          6           0       -0.812530    1.007087   -0.012233
     10          6           0       -2.136166    0.561290   -0.006570
     11          6           0       -1.354029   -1.708479    0.036407
     12          6           0       -2.408040   -0.802962    0.017149
     13          1           0        2.954132    2.349677   -0.017558
     14          1           0        1.444592    2.563427   -0.904999
     15          1           0        1.451537    2.554256    0.887335
     16          1           0        1.869894    0.344341   -2.185991
     17          1           0        3.433844    0.483930   -1.356345
     18          1           0        2.522293   -1.034344   -1.273751
     19          1           0        3.490659    0.431975    1.238171
     20          1           0        1.966089    0.370539    2.151286
     21          1           0        2.511581   -1.048815    1.233988
     22          1           0       -0.672605    2.080148   -0.029998
     23          1           0       -1.573991   -2.776993    0.059179
     24          1           0       -3.436459   -1.165261    0.023190
     25          1           0        0.653040   -3.048589    0.078842
     26          1           0       -3.983074    1.072357   -0.016765
 ---------------------------------------------------------------------
                    Distance matrix (angstroms):
                    1          2          3          4          5
     1  O    0.000000
     2  O    5.521320   0.000000
     3  C    2.828521   4.941027   0.000000
     4  C    2.388138   3.654130   1.549395   0.000000
     5  C    4.348220   5.045574   1.532012   2.577056   0.000000
     6  C    2.949934   5.872457   1.538208   2.524534   2.467069
     7  C    2.888562   5.909596   1.536640   2.529617   2.468224
     8  C    1.368199   4.153289   2.543466   1.398725   3.869597
     9  C    3.651798   2.365995   2.576157   1.393783   2.909287
    10  C    4.156825   1.365604   3.863458   2.430011   4.304276
    11  C    2.403346   3.667359   3.835952   2.422722   4.998829
    12  C    3.674194   2.414316   4.359183   2.810027   5.181336
    13  H    4.911419   6.139199   2.156867   3.513083   1.099162
    14  H    4.838877   4.774617   2.196580   2.878286   1.097448
    15  H    4.805952   4.784659   2.191493   2.867118   1.096893
    16  H    3.470153   5.565779   2.189100   2.731621   2.793841
    17  H    3.856433   6.771065   2.173292   3.480972   2.611395
    18  H    2.309236   6.316715   2.193593   2.843525   3.438147
    19  H    3.778245   6.820463   2.167434   3.483234   2.632064
    20  H    3.420713   5.651545   2.187897   2.763170   2.771102
    21  H    2.209217   6.314327   2.193493   2.822195   3.444028
    22  H    4.560060   2.520886   2.832461   2.179554   2.556516
    23  H    2.653772   4.552307   4.705785   3.412577   5.978612
    24  H    4.552966   2.685355   5.449444   3.900380   6.242307
    25  H    0.957988   5.915948   3.781312   3.181200   5.294179
    26  H    5.944921   0.958428   5.731887   4.342789   5.956129
                    6          7          8          9         10
     6  C    0.000000
     7  C    2.509034   0.000000
     8  C    3.078023   3.058500   0.000000
     9  C    3.605037   3.631676   2.403189   0.000000
    10  C    4.762432   4.789513   2.788653   1.396703   0.000000
    11  C    4.372930   4.365920   1.398195   2.769456   2.401132
    12  C    5.076847   5.090090   2.424026   2.413047   1.391281
    13  H    2.673433   2.664542   4.685846   3.998790   5.395330
    14  H    2.719492   3.452862   4.206282   2.883370   4.199708
    15  H    3.449775   2.726526   4.184103   2.885992   4.200308
    16  H    1.099027   3.476516   3.331337   3.515658   4.565683
    17  H    1.099615   2.793905   4.118535   4.484643   5.731743
    18  H    1.093485   2.723926   2.873371   4.108517   5.084587
    19  H    2.762657   1.098096   4.089216   4.517931   5.764309
    20  H    3.478336   1.099166   3.339618   3.578650   4.639098
    21  H    2.748975   1.095027   2.819383   4.102379   5.072767
    22  H    3.906491   3.943639   3.406330   1.082291   2.109381
    23  H    5.079693   5.062052   2.163008   3.860594   3.385926
    24  H    6.126954   6.141406   3.409574   3.406664   2.161626
    25  H    3.823599   3.763519   1.910722   4.313316   4.562695
    26  H    6.609841   6.644784   4.593640   3.171220   1.916342
                   11         12         13         14         15
    11  C    0.000000
    12  C    1.389702   0.000000
    13  H    5.918766   6.220388   0.000000
    14  H    5.193043   5.198625   1.764073   0.000000
    15  H    5.173605   5.188880   1.765921   1.792371   0.000000
    16  H    4.421177   4.946802   3.146275   2.597338   3.808422
    17  H    5.447030   6.137604   2.345951   2.912927   3.640040
    18  H    4.146907   5.101778   3.635396   3.773774   4.323755
    19  H    5.431094   6.149034   2.354209   3.650022   2.963981
    20  H    4.451765   5.006462   3.097919   3.797578   2.575064
    21  H    4.100280   5.073836   3.648557   4.331515   3.771734
    22  H    3.849992   3.365454   3.636760   2.341304   2.361833
    23  H    1.091157   2.143409   6.840507   6.209796   6.185618
    24  H    2.152156   1.090386   7.293566   6.212029   6.202746
    25  H    2.413715   3.796954   5.869037   5.752323   5.716916
    26  H    3.827238   2.449225   7.053820   5.698404   5.705122
                   16         17         18         19         20
    16  H    0.000000
    17  H    1.775877   0.000000
    18  H    1.777239   1.772823   0.000000
    19  H    3.789386   2.595658   3.065547   0.000000
    20  H    4.338423   3.804029   3.743519   1.778164   0.000000
    21  H    3.748187   3.147967   2.507803   1.775205   1.775827
    22  H    3.758408   4.601090   4.631884   4.653761   3.826679
    23  H    5.161769   6.141314   4.646834   6.110497   5.178421
    24  H    5.942791   7.198889   6.099665   7.211956   6.006247
    25  H    4.257015   4.719250   3.062808   4.637936   4.208273
    26  H    6.284329   7.559854   6.952554   7.605369   6.370678
                   21         22         23         24         25
    21  H    0.000000
    22  H    4.639731   0.000000
    23  H    4.588973   4.940877   0.000000
    24  H    6.071142   4.263144   2.463283   0.000000
    25  H    2.964394   5.298407   2.243617   4.502669   0.000000
    26  H    6.945811   3.460495   4.541689   2.303762   6.203619
                   26
    26  H    0.000000
 Stoichiometry    C10H14O2
 Framework group  C1[X(C10H14O2)]
 Deg. of freedom    72
 Full point group                 C1      NOp   1
 Largest Abelian subgroup         C1      NOp   1
 Largest concise Abelian subgroup C1      NOp   1
                         Standard orientation:                         
 ---------------------------------------------------------------------
 Center     Atomic      Atomic             Coordinates (Angstroms)
 Number     Number       Type             X           Y           Z
 ---------------------------------------------------------------------
      1          8           0        0.873526    2.200455   -0.008520
      2          8           0       -3.179534   -1.548901   -0.004860
      3          6           0        1.652872   -0.518568   -0.000607
      4          6           0        0.166649   -0.080662   -0.002690
      5          6           0        1.842137   -2.038414   -0.036784
      6          6           0        2.340957   -0.011538    1.278276
      7          6           0        2.374580    0.055805   -1.229628
      8          6           0       -0.141971    1.283586    0.000798
      9          6           0       -0.877047   -1.004405   -0.008174
     10          6           0       -2.209976   -0.587225   -0.001704
     11          6           0       -1.476937    1.699264    0.005734
     12          6           0       -2.511183    0.771037    0.006000
     13          1           0        2.917629   -2.265275   -0.039054
     14          1           0        1.414814   -2.531591    0.845579
     15          1           0        1.417976   -2.481607   -0.946092
     16          1           0        1.794840   -0.333491    2.176031
     17          1           0        3.359768   -0.420479    1.341064
     18          1           0        2.415602    1.079278    1.294375
     19          1           0        3.410264   -0.308457   -1.251684
     20          1           0        1.882903   -0.259191   -2.160862
     21          1           0        2.399567    1.150411   -1.212367
     22          1           0       -0.714034   -2.074327   -0.015013
     23          1           0       -1.719881    2.763031    0.007586
     24          1           0       -3.547169    1.111130    0.009748
     25          1           0        0.500749    3.082939   -0.009264
     26          1           0       -4.045438   -1.138079   -0.000337
 ---------------------------------------------------------------------
 Rotational constants (GHZ):           1.4577271           0.7288572           0.5438835
 Standard basis: 6-311++G(d,p) (5D, 7F)
 There are   374 symmetry adapted cartesian basis functions of A   symmetry.
 There are   362 symmetry adapted basis functions of A   symmetry.
   362 basis functions,   558 primitive gaussians,   374 cartesian basis functions
    45 alpha electrons       45 beta electrons
       nuclear repulsion energy       722.6557554586 Hartrees.
 NAtoms=   26 NActive=   26 NUniq=   26 SFac= 1.00D+00 NAtFMM=   60 NAOKFM=F Big=F
 Integral buffers will be    131072 words long.
 Raffenetti 2 integral format.
 Two-electron integral symmetry is turned on.
 R6APFD:  NTU= -4 IXU= 1 FactS= 1.050
 Nuclear repulsion after empirical dispersion term =      722.6350194195 Hartrees.
 One-electron integrals computed using PRISM.
 NBasis=   362 RedAO= T EigKep=  1.46D-06  NBF=   362
 NBsUse=   360 1.00D-06 EigRej=  6.76D-07 NBFU=   360
 Initial guess from the checkpoint file:  "TEBU0076.chk"
 B after Tr=     0.000000   -0.000000   -0.000000
         Rot=    0.999916   -0.009145   -0.001352   -0.009100 Ang=  -1.49 deg.
 ExpMin= 3.60D-02 ExpMax= 8.59D+03 ExpMxC= 1.30D+03 IAcc=3 IRadAn=         5 AccDes= 0.00D+00
 Harris functional with IExCor= 1009 and IRadAn=       5 diagonalized for initial guess.
 HarFok:  IExCor= 1009 AccDes= 0.00D+00 IRadAn=         5 IDoV= 1 UseB2=F ITyADJ=14
 ICtDFT=  3500011 ScaDFX=  1.000000  1.000000  1.000000  1.000000
 FoFCou: FMM=F IPFlag=           0 FMFlag=      100000 FMFlg1=           0
         NFxFlg=           0 DoJE=T BraDBF=F KetDBF=T FulRan=T
         wScrn=  0.000000 ICntrl=       500 IOpCl=  0 I1Cent=   200000004 NGrid=           0
         NMat0=    1 NMatS0=      1 NMatT0=    0 NMatD0=    1 NMtDS0=    0 NMtDT0=    0
 Petite list used in FoFCou.
 Requested convergence on RMS density matrix=1.00D-08 within  32 cycles.
 Requested convergence on MAX density matrix=1.00D-06.
 Requested convergence on             energy=1.00D-06.
 No special actions if energy rises.
 SCF Done:  E(RM08HX) =  -539.957197074     A.U. after   14 cycles
            NFock= 14  Conv=0.28D-08     -V/T= 2.0048
 QCSCF skips out because SCF is already converged.
 R6APFD:  NTU= -4 IXU= 1 FactS= 1.050
 Calling FoFJK, ICntrl=      2127 FMM=F ISym2X=0 I1Cent= 0 IOpClX= 0 NMat=1 NMatS=1 NMatT=0.
 ***** Axes restored to original set *****
 -------------------------------------------------------------------
 Center     Atomic                   Forces (Hartrees/Bohr)
 Number     Number              X              Y              Z
 -------------------------------------------------------------------
      1        8          -0.000136001   -0.003040608   -0.001353065
      2        8           0.001179399    0.002255451   -0.000063072
      3        6          -0.003205935   -0.001304054   -0.000936560
      4        6           0.017116356    0.010604371    0.000444667
      5        6          -0.002557413    0.001512990    0.000214145
      6        6           0.001023418   -0.001717554   -0.003379832
      7        6           0.000726206   -0.002891748    0.003815038
      8        6          -0.013185826   -0.005312617    0.000583397
      9        6          -0.006841753   -0.006071502   -0.000385286
     10        6           0.000428004   -0.002734945    0.000186614
     11        6           0.004370016    0.001456789   -0.000021969
     12        6           0.000126466    0.000754772    0.000002059
     13        1          -0.000950229   -0.001137379    0.000174734
     14        1          -0.002081330    0.000164380    0.000329078
     15        1          -0.002010518    0.000808941   -0.000134189
     16        1          -0.000116255    0.000589418    0.001029859
     17        1          -0.000466189   -0.000111590    0.000745740
     18        1          -0.000697573   -0.000211708   -0.000331369
     19        1           0.000282769    0.000435595   -0.000086030
     20        1           0.000036710    0.000950603   -0.001027267
     21        1           0.000359186    0.002157492    0.000468489
     22        1           0.004631097    0.003023908   -0.000075726
     23        1           0.001162953   -0.000122515   -0.000031662
     24        1           0.000112526    0.000230490   -0.000033121
     25        1           0.000416812   -0.000606335   -0.000144344
     26        1           0.000277104    0.000317352    0.000009672
 -------------------------------------------------------------------
 Cartesian Forces:  Max     0.017116356 RMS     0.003308531

 GradGradGradGradGradGradGradGradGradGradGradGradGradGradGradGradGradGrad
 Berny optimization.
 Using GEDIIS/GDIIS optimizer.
 FormGI is forming the generalized inverse of G from B-inverse, IUseBI=4.
 Internal  Forces:  Max     0.016609058 RMS     0.002734721
 Search for a local minimum.
 Step number   2 out of a maximum of  141
 All quantities printed in internal units (Hartrees-Bohrs-Radians)
 Mixed Optimization -- RFO/linear search
 Update second derivatives using D2CorX and points    1    2
 DE= -7.85D-03 DEPred=-8.97D-03 R= 8.76D-01
 TightC=F SS=  1.41D+00  RLast= 2.78D-01 DXNew= 5.0454D-01 8.3404D-01
 Trust test= 8.76D-01 RLast= 2.78D-01 DXMaxT set to 5.05D-01
 ITU=  1  0
 Use linear search instead of GDIIS.
     Eigenvalues ---    0.00229   0.00230   0.00230   0.00237   0.01558
     Eigenvalues ---    0.02156   0.02157   0.02157   0.02164   0.02186
     Eigenvalues ---    0.02207   0.02225   0.02308   0.02350   0.02473
     Eigenvalues ---    0.04806   0.05050   0.05203   0.05322   0.05341
     Eigenvalues ---    0.05425   0.05560   0.05572   0.05662   0.14244
     Eigenvalues ---    0.15061   0.15628   0.16000   0.16000   0.16000
     Eigenvalues ---    0.16000   0.16000   0.16000   0.16000   0.16000
     Eigenvalues ---    0.16000   0.16000   0.16000   0.16000   0.16640
     Eigenvalues ---    0.19849   0.22667   0.23956   0.24867   0.25000
     Eigenvalues ---    0.27314   0.27994   0.28123   0.28143   0.33113
     Eigenvalues ---    0.33902   0.34023   0.34042   0.34050   0.34056
     Eigenvalues ---    0.34070   0.34220   0.34461   0.34755   0.35198
     Eigenvalues ---    0.35336   0.36214   0.42648   0.43177   0.46477
     Eigenvalues ---    0.46685   0.48509   0.51475   0.52342   0.52731
     Eigenvalues ---    0.52837   0.54209
 RFO step:  Lambda=-5.23057607D-03 EMin= 2.29002367D-03
 Quartic linear search produced a step of -0.05414.
 Iteration  1 RMS(Cart)=  0.10906503 RMS(Int)=  0.00260543
 Iteration  2 RMS(Cart)=  0.00508711 RMS(Int)=  0.00015475
 Iteration  3 RMS(Cart)=  0.00000756 RMS(Int)=  0.00015469
 Iteration  4 RMS(Cart)=  0.00000000 RMS(Int)=  0.00015469
 Variable       Old X    -DE/DX   Delta X   Delta X   Delta X     New X
[...]
 .00095939,-0.00037066,0.00052697,0.00006696,0.00007897,-0.00013829,0.0
 0000250,-0.00009834,0.00030771,0.00017616,0.00002912,0.00046549,-0.000
 14508,-0.00066051,-0.00007321,0.00003310,-0.00002768,0.29962203,-0.001
 22484,-0.00023928,-0.00093879,-0.00009750,0.00010752,-0.00000135,0.010
 12921,0.00198176,0.00071048,0.00085773,-0.00020318,0.00178957,0.001342
 06,0.00051628,0.00015304,-0.00021308,-0.00007006,-0.00047873,-0.085612
 02,-0.07669318,0.00060811,0.00141868,-0.00096819,0.00024105,0.00027344
 ,0.00013739,-0.00006121,0.00003320,-0.00006938,-0.00021202,-0.00021858
 ,0.00001341,0.00000882,0.00015866,0.00004196,-0.00002012,0.00005052,-0
 .00047059,0.00075340,-0.00010878,0.00014206,-0.00025059,0.00002801,-0.
 00004006,-0.00015289,0.00017559,-0.00010455,-0.00011900,-0.00013678,0.
 00018490,-0.00027724,-0.00018101,-0.00010622,0.00002048,0.09195267,0.0
 8017208,0.00048319,-0.00036342,-0.00006769,-0.00014209,0.00002281,0.00
 001748,-0.02652001,-0.00906302,-0.00174860,-0.00131988,0.00267510,-0.0
 0401527,-0.00039158,-0.00124746,0.00062993,-0.00095507,-0.00054816,0.0
 0162839,0.00462410,0.00091120,-0.04505970,-0.00074200,0.00020438,0.000
 14024,-0.00090705,-0.00052240,0.00012352,-0.00009798,0.00001435,0.0003
 8881,0.00030969,-0.00000272,0.00014900,-0.00030893,0.00011874,-0.00003
 306,0.00030720,0.00068757,-0.00003591,0.00022999,-0.00030356,0.0000286
 5,0.00019734,0.00011640,-0.00005431,0.00027443,0.00012782,0.00036203,0
 .00065148,0.00026608,-0.00056484,0.00006494,-0.00012387,-0.00003840,-0
 .00048536,-0.00336738,0.04935928,-0.00012442,-0.00001663,0.00006770,0.
 00014033,-0.00010390,-0.00001239,0.00627193,-0.00588044,-0.01406082,0.
 00123457,-0.00055818,-0.00045092,0.00015966,-0.00073436,0.00008535,-0.
 00131688,0.00105357,-0.00248838,-0.10226555,0.04319817,0.10022908,0.00
 027140,-0.00003757,0.00020284,0.00025362,0.00025411,0.00029943,-0.0001
 9313,0.00007583,0.00003709,-0.00009278,-0.00003188,0.00000507,0.000104
 76,-0.00002108,-0.00002815,-0.00007190,0.00016158,0.00014962,-0.000026
 42,-0.00023186,-0.00002300,0.00015333,-0.00000134,0.00028032,0.0008302
 3,-0.00012808,-0.00080326,0.00030436,0.00017219,-0.00027697,-0.0001739
 9,0.00004721,0.00005420,-0.01220372,0.01164820,0.02390260,0.10763485,-
 0.00066723,-0.00031041,-0.00006829,-0.00002669,-0.00001011,0.00001821,
 -0.00516737,0.00222857,0.00864849,-0.00037241,0.00015903,-0.00045030,-
 0.00071947,0.00097343,0.00084866,0.00079388,-0.00057257,0.00182011,0.0
 4367136,-0.07947677,-0.07651007,0.00038773,-0.00039133,-0.00007504,-0.
 00018440,-0.00001862,-0.00007496,0.00004424,0.00004760,-0.00003432,-0.
 00021369,0.00003059,0.00003528,-0.00004732,-0.00005046,0.00002382,-0.0
 0009636,-0.00000419,-0.00001108,-0.00007134,0.00008188,-0.00026011,0.0
 0043896,-0.00033201,0.00004780,-0.00010875,0.00058110,0.00051574,0.000
 17424,-0.00010453,-0.00012175,0.00001981,0.00014869,0.00028797,-0.0050
 2080,0.00329259,0.01038803,-0.04832290,0.08185510,-0.00032766,0.000149
 58,-0.00003395,-0.00000174,-0.00001534,0.00003275,0.01249371,-0.009698
 10,-0.02231759,0.00170808,0.00020015,0.00063164,0.00069751,-0.00147214
 ,0.00067413,-0.00412724,0.00275201,-0.00371359,0.09881508,-0.07520349,
 -0.21812461,0.00032281,-0.00057204,0.00008050,-0.00048141,0.00007877,0
 .00023133,-0.00007820,0.00013511,-0.00012295,-0.00008751,-0.00006484,0
 .00002366,0.00004110,-0.00002084,-0.00000157,-0.00009900,0.00001645,-0
 .00005230,-0.00025519,-0.00001294,0.00042201,-0.00030939,0.00111396,0.
 00018978,0.00077892,-0.00055204,-0.00160336,-0.00003140,0.00012521,0.0
 0036535,-0.00005375,0.00004246,0.00023384,-0.00099857,0.00057397,0.000
 48519,-0.10626343,0.08127875,0.24095497,-0.00095815,-0.00250829,-0.001
 19629,0.00026186,-0.00031241,0.00000370,-0.00103993,0.01638267,0.00042
 157,0.00105290,0.00034179,0.00070966,-0.00162164,0.00043737,-0.0027134
 9,-0.00001343,-0.00048868,0.00078111,-0.04669878,0.00385640,0.00092016
 ,-0.00232219,0.00150320,-0.00057394,-0.00021151,0.00000776,0.00007111,
 0.00005688,0.00038549,-0.00002080,0.00003345,-0.00010801,0.00006189,0.
 00004426,-0.00029226,-0.00001186,0.00040390,0.00027023,-0.00009249,0.0
 0056274,0.00107777,-0.00037476,-0.00002780,-0.00040026,-0.00008295,-0.
 00017382,0.00001770,0.00005782,-0.00007350,-0.00018221,-0.00006137,0.0
 0045567,-0.00003054,-0.00016790,0.00189681,-0.03013219,0.00091797,-0.0
 0088047,0.01557492,-0.00164596,0.04894224,-0.00350408,-0.00350548,-0.0
 0311263,0.00007185,-0.00003947,-0.00000901,-0.00014150,-0.00900578,-0.
 00006515,-0.00011478,0.00009935,0.00002893,0.00148266,0.00044973,0.002
 23949,-0.00020037,0.00048638,-0.00059307,0.00687540,-0.32001122,0.0123
 1909,0.00050355,0.00016284,0.00029762,0.00002239,-0.00002582,-0.000046
 65,-0.00005738,0.00007179,0.00002836,0.00003064,0.00005556,0.00017359,
 0.00006784,-0.00003884,-0.00006934,0.00002365,0.00024420,-0.00013498,-
 0.00001976,-0.00055066,0.00003568,-0.00008371,0.00020852,-0.00011523,0
 .00004588,0.00014304,-0.00004136,0.00003498,-0.00010429,0.00012447,-0.
 00002277,0.00015097,0.00044137,0.00105207,-0.00774231,0.00002495,-0.00
 056409,-0.00810937,0.00108377,-0.00495096,0.34742308,-0.00101998,-0.00
 206548,-0.00152119,0.00013222,-0.00016822,-0.00000769,0.00101389,0.027
 41640,-0.00092934,0.00104114,-0.00047236,0.00056728,-0.00286692,0.0011
 7773,-0.00484988,0.00020116,0.00078696,0.00192487,0.00071577,0.0086153
 2,-0.04632978,-0.00173642,0.00145657,0.00007518,-0.00010456,0.00003946
 ,0.00009708,0.00003207,0.00016807,-0.00001418,0.00020227,-0.00021813,-
 0.00004706,0.00004357,-0.00012559,-0.00001867,-0.00001018,-0.00032245,
 -0.00010732,-0.00023553,0.00195212,0.00006916,-0.00023038,0.00013984,0
 .00017421,-0.00005058,-0.00028666,0.00023934,0.00002729,-0.00001738,-0
 .00003989,0.00015648,-0.00045518,-0.00065094,0.00001502,0.00093827,-0.
 00137609,-0.00087581,-0.02611568,0.00175323,0.00310974,-0.01214178,0.0
 5080732,0.00026750,0.00162772,-0.00001397,0.00189998,0.00028651,-0.000
 03012,0.00119818,-0.00001897,-0.00003104,0.00939170,0.02128012,-0.0002
 1500,-0.00403686,0.00014768,0.00002648,-0.00002228,-0.00031551,0.00008
 144,-0.00003310,-0.00031778,-0.00007302,-0.00317896,0.00254922,0.00003
 134,-0.06373274,-0.04635021,0.00055095,-0.00011122,-0.03020493,0.00028
 890,-0.00153024,0.00097319,-0.00000667,-0.00544252,-0.00164686,0.00006
 845,0.00024414,0.00007181,-0.00000474,-0.00342649,-0.00109863,0.001539
 79,-0.00344057,-0.00112563,-0.00148113,0.00002282,0.00004876,0.0000195
 2,-0.00004643,0.00005497,0.00002549,0.00011943,-0.00008177,-0.00011892
 ,-0.00004764,0.00005578,-0.00002825,0.00002231,0.00004842,-0.00002105,
 0.00012057,-0.00007965,0.00011837,0.07197932,-0.00028518,-0.00115298,0
 .00001313,0.00050899,0.00051631,-0.00003600,-0.00156646,-0.00135531,-0
 .00002010,-0.00325621,-0.01462754,0.00016980,-0.00255044,-0.00008361,0
 .00002396,0.00008342,-0.00000063,0.00013460,0.00006589,-0.00000442,-0.
 00013109,0.00304373,0.00032261,0.00004030,-0.04764897,-0.33366112,0.00
 280941,0.00099166,-0.00773066,0.00010940,0.00019125,0.00090668,-0.0000
 1924,-0.00195463,0.00069785,0.00004632,-0.00054589,0.00054728,-0.00000
 625,-0.00122177,0.00010421,-0.00001215,-0.00125044,0.00009478,0.000013
 30,0.00002762,-0.00001434,-0.00004211,0.00007280,0.00002955,-0.0000248
 9,-0.00003964,0.00002429,0.00001449,0.00007152,0.00003200,0.00001982,0
 .00002759,-0.00001353,0.00004140,-0.00004004,0.00002413,-0.00001554,0.
 05502165,0.35563609,0.00000233,0.00000351,0.00022804,-0.00003214,-0.00
 003474,-0.00337754,-0.00001841,-0.00002924,-0.00473427,-0.00000542,0.0
 0004377,0.00320366,0.00004926,0.00000900,0.00105441,0.00094964,0.00009
 482,0.00024481,-0.00094774,-0.00008689,0.00025977,0.00002648,0.0000427
 2,0.00693945,0.00056380,0.00280082,-0.03423600,0.00002074,0.00027231,0
 .00565739,0.00000102,-0.00002350,-0.00122327,0.00007089,0.00004605,0.0
 0491967,0.00000056,-0.00000938,-0.00050518,0.00208073,0.00062625,-0.00
 077491,-0.00201957,-0.00062633,-0.00072138,0.00002668,-0.00000306,-0.0
 0003767,0.00008866,-0.00012423,-0.00022077,0.00001419,-0.00000582,-0.0
 0006076,-0.00009176,0.00011923,-0.00022195,-0.00002780,0.00000207,-0.0
 0003790,-0.00001544,0.00000521,-0.00006167,-0.00073024,-0.00312109,0.0
 2473830,0.00257015,-0.00134804,-0.00002588,0.00000079,0.00153934,-0.00
 001125,0.00067756,-0.00132606,0.00000742,-0.00564778,-0.00169672,0.000
 07197,-0.00049621,0.00003550,0.00000186,0.00008562,-0.00004607,-0.0001
 0715,0.00008565,-0.00004493,0.00010702,-0.00079057,-0.02799091,0.00026
 921,-0.00161315,0.00074708,-0.00000305,-0.00300204,0.00319583,0.000020
 42,-0.07029780,-0.05598350,0.00068723,0.00910489,0.02323362,-0.0002368
 1,-0.00001606,-0.00018041,0.00000130,0.00001588,0.00000330,0.00002216,
 0.00001566,0.00000246,-0.00002243,-0.00000374,0.00000735,0.00001259,-0
 .00002725,0.00003004,0.00001988,-0.00002864,0.00002662,0.00003129,-0.0
 0002752,0.00002990,-0.00002035,-0.00000390,0.00000676,-0.00001280,-0.0
 0002923,0.00002632,-0.00003119,0.00003439,-0.00003547,-0.00000087,0.06
 984122,0.00057870,0.00302031,-0.00006743,0.00000466,-0.00154893,0.0000
 1625,0.00056375,-0.00039859,-0.00000006,-0.00240858,0.00111770,0.00004
 879,-0.00028576,0.00005413,0.00000021,-0.00004009,-0.00007344,-0.00007
 204,-0.00004117,-0.00007329,0.00007372,0.00351903,-0.00949712,0.000102
 50,0.00003344,0.00085829,-0.00001600,0.00405021,0.00060003,0.00002725,
 -0.05614321,-0.31750654,0.00276586,-0.00685856,-0.01616734,0.00019424,
 -0.00003598,-0.00008301,0.00000033,0.00002026,0.00000773,-0.00000632,0
 .00002038,0.00000709,0.00000588,0.00001022,0.00000522,-0.00000543,-0.0
 0005196,0.00002207,0.00004372,-0.00002336,0.00002453,0.00002370,-0.000
 05250,0.00002164,-0.00004393,0.00001026,0.00000473,0.00000501,-0.00002
 399,0.00002451,-0.00002345,-0.00003259,-0.00009932,-0.00000069,0.05898
 058,0.33878999,-0.00004185,-0.00005601,-0.00446607,0.00000170,0.000008
 28,0.00034863,-0.00000871,0.00000973,-0.00005065,0.00007783,0.00004429
 ,0.00528984,0.00000446,-0.00000150,-0.00010003,0.00010812,0.00006642,-
 0.00000297,-0.00010829,-0.00006469,-0.00000303,-0.00000110,0.00026704,
 0.00450777,0.00000242,-0.00001955,-0.00097582,0.00001368,0.00003153,0.
 00618528,0.00068744,0.00276699,-0.03151594,0.00002326,0.00003589,0.002
 18813,0.00000003,0.00000106,-0.00006686,-0.00000319,0.00004303,-0.0000
 0568,0.00000262,-0.00004329,-0.00000485,0.00000045,0.00003358,-0.00001
 257,0.00000457,-0.00001948,-0.00002344,0.00002106,-0.00002301,0.000025
 56,-0.00000362,0.00001837,-0.00002274,-0.00000072,-0.00003392,-0.00001
 193,-0.00002006,0.00002276,0.00002612,-0.00000096,-0.00000068,-0.00019
 841,-0.00076217,-0.00304872,0.02179661,-0.00179766,0.00001472,0.000011
 94,0.00266349,-0.00011912,-0.00003410,0.00006857,-0.00006768,-0.000001
 96,0.00041692,0.00029340,-0.00000960,-0.00007296,-0.00002296,0.0000005
 4,-0.00000874,0.00003427,-0.00000202,-0.00000966,0.00003443,0.00000144
 ,0.00018158,0.00409466,-0.00000312,0.00166530,-0.00158729,0.00003420,-
 0.00567991,0.00277078,0.00002705,-0.01752747,-0.01021958,0.00018860,-0
 .30305082,-0.08554429,0.00215759,-0.00002582,-0.00000309,0.00000004,0.
 00000868,0.00000593,-0.00001721,0.00000896,0.00000608,0.00001690,0.000
 00883,-0.00001002,0.00000205,-0.00001678,-0.00002218,0.00000023,0.0000
 3796,0.00000926,-0.00002962,-0.00001689,-0.00002206,0.00000014,0.00000
 885,-0.00001006,-0.00000199,0.00003830,0.00000963,0.00002908,-0.000257
 87,-0.00002012,0.00000120,0.00059046,0.00033991,-0.00002567,0.32274180
 ,0.00136544,0.00008048,-0.00000381,-0.00073454,0.00276269,-0.00005431,
 -0.00001010,-0.00000253,-0.00000351,0.00094310,-0.00152012,0.00000012,
 -0.00004726,-0.00004284,0.00000054,0.00000678,0.00002571,0.00000191,0.
 00000519,0.00002588,-0.00000257,0.00318992,-0.00199888,0.00005536,-0.0
 0080019,-0.00608814,0.00010446,-0.02910258,-0.00250628,0.00020840,0.01
 992829,0.01084852,-0.00018314,-0.08590874,-0.08856235,0.00094258,-0.00
 004466,0.00004524,-0.00000036,0.00000864,0.00002492,-0.00006578,0.0000
 0951,0.00002581,0.00006508,-0.00000050,-0.00000254,-0.00000446,0.00001
 098,0.00000460,-0.00000220,-0.00002670,0.00000411,0.00002450,0.0000108
 2,0.00000481,0.00000169,-0.00000038,-0.00000246,0.00000449,-0.00002692
 ,0.00000347,-0.00002421,-0.00149393,-0.00022710,0.00000927,-0.00032085
 ,0.00061509,-0.00003613,0.09180363,0.08777886,0.00000012,0.00000361,0.
 00048103,-0.00002903,-0.00005750,-0.00402459,-0.00000250,-0.00000318,-
 0.00041359,-0.00001507,0.00000369,-0.00093795,0.00000074,0.00000037,-0
 .00001115,0.00008886,-0.00001255,-0.00000987,-0.00008895,0.00001158,-0
 .00000909,0.00000517,0.00005064,0.00636123,0.00002790,0.00010850,0.005
 60426,0.00030071,0.00004093,0.00401371,-0.00007118,-0.00002502,0.00169
 689,0.00216084,0.00094084,-0.03125766,0.00000038,-0.00000057,-0.000023
 90,-0.00000924,0.00001309,-0.00000865,0.00000887,-0.00001375,-0.000009
 81,-0.00000469,-0.00000047,-0.00000130,0.00001004,-0.00001031,-0.00001
 774,-0.00000195,0.00001266,0.00000362,-0.00001024,0.00001015,-0.000017
 84,0.00000459,0.00000059,-0.00000142,0.00000203,-0.00001278,0.00000393
 ,0.00001387,0.00000151,-0.00006355,-0.00002003,-0.00003977,-0.00377356
 ,-0.00236326,-0.00104679,0.02191618,-0.12512546,-0.20936808,0.00234615
 ,-0.00010895,-0.00012390,0.00000127,-0.00029200,0.00051067,-0.00000387
 ,-0.00513603,0.00437096,-0.00000426,-0.00003842,-0.00002911,-0.0000001
 1,-0.00027922,0.00002458,0.00030947,-0.00028682,0.00001969,-0.00031140
 ,0.01076717,0.03616182,-0.00036285,0.00136557,0.00062802,-0.00000695,-
 0.00038390,-0.00073524,0.00001015,0.00167422,0.00420420,-0.00004806,-0
 .00092792,0.00031900,-0.00000280,-0.00000858,-0.00000543,0.00000008,0.
 00000202,-0.00000786,0.00000161,0.00000205,-0.00000801,-0.00000160,-0.
 00001475,-0.00012755,0.00004770,-0.00004798,-0.00022181,0.00004405,0.0
 0022337,-0.00049663,-0.00033775,-0.00004817,-0.00022376,-0.00004013,-0
 .00001540,-0.00013020,-0.00004572,0.00022676,-0.00049618,0.00034620,-0
 .00025854,0.00021651,-0.00000110,-0.00126589,-0.00186227,0.00002752,0.
 00011572,-0.00002736,-0.00000089,0.11991794,-0.15801436,-0.45985515,0.
 00455920,-0.00081568,0.00080667,-0.00000325,-0.00000540,0.00015620,-0.
 00000321,0.00463470,0.00013378,-0.00001623,0.00006018,-0.00001857,-0.0
 0000122,0.00011427,0.00036101,0.00003198,0.00010787,0.00036054,-0.0000
 4601,-0.00967814,-0.03372942,0.00031489,-0.00145266,-0.00107595,0.0000
 2757,0.00069966,0.00000704,-0.00000148,-0.00347819,0.00505720,-0.00003
 034,-0.00010519,-0.00073154,0.00000074,0.00003119,0.00002011,-0.000000
 36,-0.00001753,0.00000137,0.00000196,-0.00001745,0.00000095,-0.0000019
 8,-0.00003012,-0.00000973,-0.00000261,0.00008665,0.00005937,-0.0000162
 2,-0.00037442,-0.00040281,0.00026343,0.00008731,0.00005833,0.00001354,
 -0.00003030,-0.00001229,0.00000248,-0.00037842,-0.00041569,-0.00024888
 ,0.00027300,-0.00009700,-0.00000136,0.00114086,0.00017227,-0.00000137,
 -0.00029211,0.00019638,-0.00000088,0.16730542,0.48899807,0.00192376,0.
 00480657,-0.00202258,0.00000798,-0.00000726,-0.00004052,0.00000045,-0.
 00000605,-0.00018307,-0.00000820,-0.00001404,0.00115305,-0.00000097,-0
 .00000097,-0.00013108,0.00034995,0.00000848,-0.00039518,-0.00035359,-0
 .00002085,-0.00038721,0.00001367,0.00009286,-0.00184515,0.00001124,0.0
 0001810,0.00121034,-0.00000209,0.00000722,0.00025124,0.00001630,-0.000
 06898,-0.00059861,0.00000092,-0.00000439,-0.00089315,-0.00000024,-0.00
 000009,-0.00000160,-0.00000716,0.00002402,-0.00001240,0.00000732,-0.00
 002419,-0.00001207,0.00001114,0.00015334,-0.00004573,-0.00002999,0.000
 07499,-0.00004507,0.00008137,0.00050292,0.00020186,0.00002858,-0.00007
 466,-0.00004377,-0.00001097,-0.00015245,-0.00004253,-0.00007437,-0.000
 48719,0.00021179,-0.00000173,-0.00000086,-0.00009000,0.00000252,0.0000
 1575,0.00085979,0.00000134,-0.00000207,-0.00007433,-0.00196623,-0.0048
 4007,0.00296470,0.00086208,-0.00071680,0.00000139,-0.44526432,-0.17050
 292,0.00382433,-0.00013674,0.00023584,-0.00000209,-0.00085321,-0.00168
 428,0.00002585,0.00005483,0.00003024,-0.00000058,-0.00000128,0.0000147
 0,0.00000922,-0.00000191,0.00001448,-0.00000907,-0.00002635,0.00069945
 ,-0.00000347,-0.00137322,0.00512518,-0.00003071,-0.03370711,-0.0131246
 0,0.00028259,-0.00074810,-0.00026486,-0.00000095,0.00510571,-0.0025248
 1,-0.00000622,0.00004096,0.00000737,-0.00000022,-0.00001965,-0.0000182
 9,0.00001993,-0.00001997,-0.00001862,-0.00001955,-0.00002153,-0.000001
 00,0.00001534,0.00004158,0.00001692,0.00000351,-0.00004558,-0.00001126
 ,0.00002344,0.00004153,0.00001695,-0.00000439,-0.00002163,-0.00000133,
 -0.00001522,-0.00004588,-0.00001161,-0.00002271,0.00026514,0.00009262,
 -0.00000571,0.00022752,-0.00027137,0.00000121,-0.00009085,0.00126243,-
 0.00000711,-0.00005680,0.00014884,-0.00000099,0.47579480,-0.00009468,-
 0.00008807,0.00000066,-0.22257976,-0.14173049,0.00238700,0.00012178,-0
 .00015402,-0.00000045,0.00072481,0.00152891,-0.00000560,-0.00004895,-0
 .00001959,0.00000042,-0.00002903,-0.00004207,-0.00002506,-0.00002947,-
 0.00004166,0.00002673,-0.00076879,-0.00052130,0.00001240,0.00414126,-0
 .00414470,0.00002353,0.03459424,0.01175543,-0.00029922,0.00050231,-0.0
 0073193,-0.00000744,0.00304576,0.00196354,-0.00003466,-0.00002894,0.00
 000051,0.00000025,0.00001947,0.00000352,-0.00001594,0.00001945,0.00000
 378,0.00001538,0.00001413,0.00000533,-0.00000872,-0.00003285,0.0000002
 3,0.00000671,0.00001988,0.00000112,-0.00001043,-0.00003290,0.00000027,
 -0.00000655,0.00001429,0.00000534,0.00000819,0.00001990,0.00000136,0.0
 0001026,0.00032762,0.00013179,-0.00000869,-0.00003263,0.00010223,-0.00
 000061,-0.00147612,-0.00149331,0.00002540,0.00010252,-0.00004115,-0.00
 000017,0.18148672,0.13350493,-0.00000401,0.00000370,-0.00008215,0.0042
 7506,0.00211036,-0.00203291,-0.00000116,-0.00000107,-0.00014134,0.0000
 0481,0.00000717,0.00131857,0.00000017,0.,-0.00000217,0.00004700,0.0000
 0386,0.00003688,-0.00004611,-0.00000267,0.00003709,0.00000890,0.000004
 63,0.00047173,-0.00002225,0.00001866,0.00113704,-0.00013027,-0.0000458
 2,-0.00167470,-0.00000686,-0.00000353,-0.00130658,-0.00005433,-0.00000
 512,-0.00020668,0.00000010,0.00000006,0.00001137,0.00001022,0.00000003
 ,-0.00001616,-0.00001051,-0.00000018,-0.00001613,-0.00000492,0.0000072
 3,-0.00001474,-0.00000033,-0.00000941,-0.00001232,0.00000526,-0.000003
 69,0.00000412,0.00000032,0.00000902,-0.00001234,0.00000474,-0.00000755
 ,-0.00001468,-0.00000509,0.00000387,0.00000418,-0.00000773,-0.00000743
 ,-0.00068027,-0.00000091,0.00000064,0.00000681,0.00001620,0.00001095,0
 .00057515,-0.00000047,-0.00000030,0.00001127,-0.00407782,-0.00209339,0
 .00259896\\0.00000111,-0.00002255,0.00000353,-0.00002215,-0.00001402,0
 .00000050,-0.00003561,0.00001053,0.00001236,0.00004302,-0.00005452,-0.
 00000337,-0.00001406,-0.00001439,-0.00000400,0.00000788,0.00001424,-0.
 00001661,0.00000328,0.00001093,0.00000081,0.00004728,0.00006062,0.0000
 0073,-0.00004420,-0.00000203,-0.00000108,0.00003635,0.00003594,-0.0000
 0243,-0.00004915,0.00002030,-0.00000118,-0.00000085,-0.00006349,-0.000
 00004,0.00000218,0.00000560,-0.00000108,-0.00000093,0.00000091,-0.0000
 0245,0.00000025,-0.00000143,0.00000344,-0.00000244,0.00000134,-0.00000
 139,0.00000107,0.00000387,0.00000161,-0.00000297,-0.00000187,0.0000064
 3,0.00000056,0.00000382,0.00000035,0.00000086,0.00000179,0.00000453,-0
 .00000170,-0.00000213,-0.00000173,-0.00000329,0.00000463,0.00000226,0.
 00000916,-0.00001166,0.00000076,0.00000282,-0.00000588,0.00000017,0.00
 001077,0.00001988,-0.00000220,0.00001078,-0.00000044,0.00000007\\\@


 THOSE WHO ASPIRE NOT TO GUESS AND DIVINE,
 BUT TO DISCOVER AND KNOW, WHO PROPOSE NOT TO DEVISE 
 MIMIC AND FABULOUS WORLDS OF THEIR OWN, BUT TO 
 EXAMINE AND DISSECT THE NATURE OF THIS VERY WORLD 
 ITSELF, MUST GO TO THE FACTS THEMSELVES FOR EVERYTHING.

                               -- FRANCIS BACON, 1620
 Job cpu time:       0 days  4 hours 52 minutes 58.5 seconds.
 Elapsed time:       0 days  0 hours 18 minutes 23.4 seconds.
 File lengths (MBytes):  RWF=    298 Int=      0 D2E=      0 Chk=     12 Scr=      1
 Normal termination of Gaussian 16 at Sat Sep 27 15:45:38 2025.
