 Entering Gaussian System, Link 0=g16
 Input=TEYN0162.gjf
 Output=TEYN0162.log
 Initial command:
 /usr/local/g16/l1.exe "/dados_01/scratch/Gau-2288095.inp" -scrdir="/dados_01/scratch/"
 Entering Link 1 = /usr/local/g16/l1.exe PID=   2288096.
  
 Copyright (c) 1988-2017, Gaussian, Inc.  All Rights Reserved.
  
 This is part of the Gaussian(R) 16 program.  It is based on
 the Gaussian(R) 09 system (copyright 2009, Gaussian, Inc.),
 the Gaussian(R) 03 system (copyright 2003, Gaussian, Inc.),
 the Gaussian(R) 98 system (copyright 1998, Gaussian, Inc.),
 the Gaussian(R) 94 system (copyright 1995, Gaussian, Inc.),
 the Gaussian 92(TM) system (copyright 1992, Gaussian, Inc.),
 the Gaussian 90(TM) system (copyright 1990, Gaussian, Inc.),
 the Gaussian 88(TM) system (copyright 1988, Gaussian, Inc.),
 the Gaussian 86(TM) system (copyright 1986, Carnegie Mellon
 University), and the Gaussian 82(TM) system (copyright 1983,
 Carnegie Mellon University). Gaussian is a federally registered
 trademark of Gaussian, Inc.
  
 This software contains proprietary and confidential information,
 including trade secrets, belonging to Gaussian, Inc.
  
 This software is provided under written license and may be
 used, copied, transmitted, or stored only in accord with that
 written license.
  
 The following legend is applicable only to US Government
 contracts under FAR:
  
                    RESTRICTED RIGHTS LEGEND
  
 Use, reproduction and disclosure by the US Government is
 subject to restrictions as set forth in subparagraphs (a)
 and (c) of the Commercial Computer Software - Restricted
 Rights clause in FAR 52.227-19.
  
 Gaussian, Inc.
 340 Quinnipiac St., Bldg. 40, Wallingford CT 06492
  
  
 ---------------------------------------------------------------
 Warning -- This program may not be used in any manner that
 competes with the business of Gaussian, Inc. or will provide
 assistance to any competitor of Gaussian, Inc.  The licensee
 of this program is prohibited from giving any competitor of
 Gaussian, Inc. access to this program.  By using this program,
 the user acknowledges that Gaussian, Inc. is engaged in the
 business of creating and licensing software in the field of
 computational chemistry and represents and warrants to the
 licensee that it is not a competitor of Gaussian, Inc. and that
 it will not use this program in any manner prohibited above.
 ---------------------------------------------------------------
  

 Cite this work as:
 Gaussian 16, Revision B.01,
 M. J. Frisch, G. W. Trucks, H. B. Schlegel, G. E. Scuseria, 
 M. A. Robb, J. R. Cheeseman, G. Scalmani, V. Barone, 
 G. A. Petersson, H. Nakatsuji, X. Li, M. Caricato, A. V. Marenich, 
 J. Bloino, B. G. Janesko, R. Gomperts, B. Mennucci, H. P. Hratchian, 
 J. V. Ortiz, A. F. Izmaylov, J. L. Sonnenberg, D. Williams-Young, 
 F. Ding, F. Lipparini, F. Egidi, J. Goings, B. Peng, A. Petrone, 
 T. Henderson, D. Ranasinghe, V. G. Zakrzewski, J. Gao, N. Rega, 
 G. Zheng, W. Liang, M. Hada, M. Ehara, K. Toyota, R. Fukuda, 
 J. Hasegawa, M. Ishida, T. Nakajima, Y. Honda, O. Kitao, H. Nakai, 
 T. Vreven, K. Throssell, J. A. Montgomery, Jr., J. E. Peralta, 
 F. Ogliaro, M. J. Bearpark, J. J. Heyd, E. N. Brothers, K. N. Kudin, 
 V. N. Staroverov, T. A. Keith, R. Kobayashi, J. Normand, 
 K. Raghavachari, A. P. Rendell, J. C. Burant, S. S. Iyengar, 
 J. Tomasi, M. Cossi, J. M. Millam, M. Klene, C. Adamo, R. Cammi, 
 J. W. Ochterski, R. L. Martin, K. Morokuma, O. Farkas, 
 J. B. Foresman, and D. J. Fox, Gaussian, Inc., Wallingford CT, 2016.
 
 ******************************************
 Gaussian 16:  ES64L-G16RevB.01 20-Dec-2017
                27-Sep-2025 
 ******************************************
 %nprocs=16
 Will use up to   16 processors via shared memory.
 %mem=40GB
 %chk=TEYN0162.chk
 ----------------------------------------------------------------------
 # opt freq=noraman M08HX/6-311++G** scf=xqc Empiricaldispersion=pfd In
 t(Grid=ultraFine)
 ----------------------------------------------------------------------
 1/18=20,19=15,26=4,38=1/1,3;
 2/9=110,12=2,17=6,18=5,40=1/2;
 3/5=4,6=6,7=1111,11=2,25=1,30=1,71=1,74=-74,75=-5,124=11/1,2,3;
 4//1;
 5/5=2,8=3,13=1,38=5/2,8;
 6/7=2,8=2,9=2,10=2,28=1/1;
 7//1,2,3,16;
 1/18=20,19=15,26=4/3(2);
 2/9=110/2;
 99//99;
 2/9=110/2;
 3/5=4,6=6,7=1111,11=2,25=1,30=1,71=1,74=-74,75=-5,124=11/1,2,3;
 4/5=5,16=3,69=1/1;
 5/5=2,8=3,13=1,38=5/2,8;
 7//1,2,3,16;
 1/18=20,19=15,26=4/3(-5);
 2/9=110/2;
 6/7=2,8=2,9=2,10=2,19=2,28=1/1;
 99/9=1/99;
 --------
 TEYN0162
 --------
 Symbolic Z-matrix:
 Charge =  0 Multiplicity = 1
 O                     2.6549   -0.8954   -0.1763 
 O                     2.577     1.452     0.0295 
 O                    -2.5789    1.4504   -0.0307 
 O                    -2.6539   -0.8975    0.1772 
 C                     2.0154    0.2098    0.4708 
 C                    -2.0178    0.2082   -0.4724 
 C                     2.113    -2.1516    0.2123 
 C                     3.9677    1.5471    0.3106 
 C                    -3.9702    1.5449   -0.3085 
 C                    -2.1106   -2.1528   -0.2124 
 C                     0.5841    0.2162    0.1335 
 C                    -0.5858    0.2157   -0.1383 
 C                     2.8488   -3.2537   -0.5198 
 C                     4.4807    2.8823   -0.1848 
 C                    -4.4824    2.8804    0.1873 
 C                    -2.8421   -3.256     0.5219 
 H                     2.1514    0.1276    1.5563 
 H                    -2.1564    0.125    -1.5575 
 H                     2.2223   -2.2844    1.2942 
 H                     1.0599   -2.2286   -0.0563 
 H                     4.1321    1.4644    1.3906 
 H                     4.5143    0.7439   -0.1951 
 H                    -4.1371    1.4616   -1.388 
 H                    -4.5153    0.7419    0.199 
 H                    -2.2228   -2.2862   -1.294 
 H                    -1.0566   -2.228     0.053 
 H                     2.458    -4.2367   -0.2424 
 H                     2.7529   -3.1281   -1.6034 
 H                     3.9188   -3.2214   -0.2893 
 H                     5.55      2.9902    0.0178 
 H                     4.3131    2.9843   -1.2621 
 H                     3.9447    3.7051    0.2997 
 H                    -5.5521    2.9878   -0.0129 
 H                    -4.3124    2.9829    1.2642 
 H                    -3.9477    3.703    -0.2989 
 H                    -2.4503   -4.2385    0.2436 
 H                    -2.7433   -3.1301    1.6053 
 H                    -3.9128   -3.2259    0.2946 
 

 GradGradGradGradGradGradGradGradGradGradGradGradGradGradGradGradGradGrad
 Berny optimization.
 Initialization pass.
                           ----------------------------
                           !    Initial Parameters    !
                           ! (Angstroms and Degrees)  !
 --------------------------                            --------------------------
 ! Name  Definition              Value          Derivative Info.                !
 --------------------------------------------------------------------------------
 ! R1    R(1,5)                  1.4315         estimate D2E/DX2                !
 ! R2    R(1,7)                  1.4222         estimate D2E/DX2                !
 ! R3    R(2,5)                  1.4329         estimate D2E/DX2                !
 ! R4    R(2,8)                  1.422          estimate D2E/DX2                !
 ! R5    R(3,6)                  1.4328         estimate D2E/DX2                !
 ! R6    R(3,9)                  1.4219         estimate D2E/DX2                !
 ! R7    R(4,6)                  1.4315         estimate D2E/DX2                !
 ! R8    R(4,10)                 1.4222         estimate D2E/DX2                !
 ! R9    R(5,11)                 1.4705         estimate D2E/DX2                !
 ! R10   R(5,17)                 1.0971         estimate D2E/DX2                !
 ! R11   R(6,12)                 1.4705         estimate D2E/DX2                !
 ! R12   R(6,18)                 1.0971         estimate D2E/DX2                !
 ! R13   R(7,13)                 1.5139         estimate D2E/DX2                !
 ! R14   R(7,19)                 1.0955         estimate D2E/DX2                !
 ! R15   R(7,20)                 1.0895         estimate D2E/DX2                !
 ! R16   R(8,14)                 1.5137         estimate D2E/DX2                !
 ! R17   R(8,21)                 1.0956         estimate D2E/DX2                !
 ! R18   R(8,22)                 1.0953         estimate D2E/DX2                !
 ! R19   R(9,15)                 1.5138         estimate D2E/DX2                !
 ! R20   R(9,23)                 1.0955         estimate D2E/DX2                !
 ! R21   R(9,24)                 1.0952         estimate D2E/DX2                !
 ! R22   R(10,16)                1.5137         estimate D2E/DX2                !
 ! R23   R(10,25)                1.0956         estimate D2E/DX2                !
 ! R24   R(10,26)                1.0895         estimate D2E/DX2                !
 ! R25   R(11,12)                1.2011         estimate D2E/DX2                !
 ! R26   R(13,27)                1.0936         estimate D2E/DX2                !
 ! R27   R(13,28)                1.0951         estimate D2E/DX2                !
 ! R28   R(13,29)                1.095          estimate D2E/DX2                !
 ! R29   R(14,30)                1.0937         estimate D2E/DX2                !
 ! R30   R(14,31)                1.095          estimate D2E/DX2                !
 ! R31   R(14,32)                1.095          estimate D2E/DX2                !
 ! R32   R(15,33)                1.0936         estimate D2E/DX2                !
 ! R33   R(15,34)                1.095          estimate D2E/DX2                !
 ! R34   R(15,35)                1.095          estimate D2E/DX2                !
 ! R35   R(16,36)                1.0937         estimate D2E/DX2                !
 ! R36   R(16,37)                1.0952         estimate D2E/DX2                !
 ! R37   R(16,38)                1.095          estimate D2E/DX2                !
 ! A1    A(5,1,7)              112.8429         estimate D2E/DX2                !
 ! A2    A(5,2,8)              112.3585         estimate D2E/DX2                !
 ! A3    A(6,3,9)              112.3687         estimate D2E/DX2                !
 ! A4    A(6,4,10)             112.811          estimate D2E/DX2                !
 ! A5    A(1,5,2)              110.7935         estimate D2E/DX2                !
 ! A6    A(1,5,11)             109.5418         estimate D2E/DX2                !
 ! A7    A(1,5,17)             109.5148         estimate D2E/DX2                !
 ! A8    A(2,5,11)             107.8824         estimate D2E/DX2                !
 ! A9    A(2,5,17)             108.7293         estimate D2E/DX2                !
 ! A10   A(11,5,17)            110.3615         estimate D2E/DX2                !
 ! A11   A(3,6,4)              110.8389         estimate D2E/DX2                !
 ! A12   A(3,6,12)             107.8721         estimate D2E/DX2                !
 ! A13   A(3,6,18)             108.7344         estimate D2E/DX2                !
 ! A14   A(4,6,12)             109.4856         estimate D2E/DX2                !
 ! A15   A(4,6,18)             109.5191         estimate D2E/DX2                !
 ! A16   A(12,6,18)            110.3737         estimate D2E/DX2                !
 ! A17   A(1,7,13)             109.0067         estimate D2E/DX2                !
 ! A18   A(1,7,19)             109.8101         estimate D2E/DX2                !
 ! A19   A(1,7,20)             111.3057         estimate D2E/DX2                !
 ! A20   A(13,7,19)            109.9279         estimate D2E/DX2                !
 ! A21   A(13,7,20)            107.4037         estimate D2E/DX2                !
 ! A22   A(19,7,20)            109.35           estimate D2E/DX2                !
 ! A23   A(2,8,14)             109.01           estimate D2E/DX2                !
 ! A24   A(2,8,21)             109.6684         estimate D2E/DX2                !
 ! A25   A(2,8,22)             110.3498         estimate D2E/DX2                !
 ! A26   A(14,8,21)            109.7765         estimate D2E/DX2                !
 ! A27   A(14,8,22)            109.0632         estimate D2E/DX2                !
 ! A28   A(21,8,22)            108.9598         estimate D2E/DX2                !
 ! A29   A(3,9,15)             109.0083         estimate D2E/DX2                !
 ! A30   A(3,9,23)             109.666          estimate D2E/DX2                !
 ! A31   A(3,9,24)             110.349          estimate D2E/DX2                !
 ! A32   A(15,9,23)            109.771          estimate D2E/DX2                !
 ! A33   A(15,9,24)            109.0658         estimate D2E/DX2                !
 ! A34   A(23,9,24)            108.9677         estimate D2E/DX2                !
 ! A35   A(4,10,16)            109.0123         estimate D2E/DX2                !
 ! A36   A(4,10,25)            109.8036         estimate D2E/DX2                !
 ! A37   A(4,10,26)            111.3306         estimate D2E/DX2                !
 ! A38   A(16,10,25)           109.9186         estimate D2E/DX2                !
 ! A39   A(16,10,26)           107.3993         estimate D2E/DX2                !
 ! A40   A(25,10,26)           109.3396         estimate D2E/DX2                !
 ! A41   A(7,13,27)            110.9778         estimate D2E/DX2                !
 ! A42   A(7,13,28)            110.6375         estimate D2E/DX2                !
 ! A43   A(7,13,29)            110.5882         estimate D2E/DX2                !
 ! A44   A(27,13,28)           108.8326         estimate D2E/DX2                !
 ! A45   A(27,13,29)           108.8024         estimate D2E/DX2                !
 ! A46   A(28,13,29)           106.887          estimate D2E/DX2                !
 ! A47   A(8,14,30)            110.962          estimate D2E/DX2                !
 ! A48   A(8,14,31)            110.6262         estimate D2E/DX2                !
 ! A49   A(8,14,32)            110.6157         estimate D2E/DX2                !
 ! A50   A(30,14,31)           108.8268         estimate D2E/DX2                !
 ! A51   A(30,14,32)           108.8137         estimate D2E/DX2                !
 ! A52   A(31,14,32)           106.8813         estimate D2E/DX2                !
 ! A53   A(9,15,33)            110.9556         estimate D2E/DX2                !
 ! A54   A(9,15,34)            110.6179         estimate D2E/DX2                !
 ! A55   A(9,15,35)            110.6159         estimate D2E/DX2                !
 ! A56   A(33,15,34)           108.8265         estimate D2E/DX2                !
 ! A57   A(33,15,35)           108.8201         estimate D2E/DX2                !
 ! A58   A(34,15,35)           106.8905         estimate D2E/DX2                !
 ! A59   A(10,16,36)           110.9859         estimate D2E/DX2                !
 ! A60   A(10,16,37)           110.6409         estimate D2E/DX2                !
 ! A61   A(10,16,38)           110.5975         estimate D2E/DX2                !
 ! A62   A(36,16,37)           108.8244         estimate D2E/DX2                !
 ! A63   A(36,16,38)           108.7932         estimate D2E/DX2                !
 ! A64   A(37,16,38)           106.8826         estimate D2E/DX2                !
 ! A65   L(5,11,12,20,-1)      179.7503         estimate D2E/DX2                !
 ! A66   L(6,12,11,26,-1)      179.7399         estimate D2E/DX2                !
 ! A67   L(5,11,12,20,-2)      179.7846         estimate D2E/DX2                !
 ! A68   L(6,12,11,26,-2)      179.9138         estimate D2E/DX2                !
 ! D1    D(7,1,5,2)           -178.9058         estimate D2E/DX2                !
 ! D2    D(7,1,5,11)           -60.0036         estimate D2E/DX2                !
 ! D3    D(7,1,5,17)            61.1614         estimate D2E/DX2                !
 ! D4    D(5,1,7,13)          -179.9972         estimate D2E/DX2                !
 ! D5    D(5,1,7,19)           -59.5164         estimate D2E/DX2                !
 ! D6    D(5,1,7,20)            61.7153         estimate D2E/DX2                !
 ! D7    D(8,2,5,1)            -60.1026         estimate D2E/DX2                !
 ! D8    D(8,2,5,11)           179.9976         estimate D2E/DX2                !
 ! D9    D(8,2,5,17)            60.2986         estimate D2E/DX2                !
 ! D10   D(5,2,8,14)          -179.9958         estimate D2E/DX2                !
 ! D11   D(5,2,8,21)           -59.7848         estimate D2E/DX2                !
 ! D12   D(5,2,8,22)            60.2532         estimate D2E/DX2                !
 ! D13   D(9,3,6,4)            -60.1487         estimate D2E/DX2                !
 ! D14   D(9,3,6,12)           179.9998         estimate D2E/DX2                !
 ! D15   D(9,3,6,18)            60.2892         estimate D2E/DX2                !
 ! D16   D(6,3,9,15)          -179.9965         estimate D2E/DX2                !
 ! D17   D(6,3,9,23)           -59.7948         estimate D2E/DX2                !
 ! D18   D(6,3,9,24)            60.2509         estimate D2E/DX2                !
 ! D19   D(10,4,6,3)          -178.875          estimate D2E/DX2                !
 ! D20   D(10,4,6,12)          -59.9929         estimate D2E/DX2                !
 ! D21   D(10,4,6,18)           61.1546         estimate D2E/DX2                !
 ! D22   D(6,4,10,16)         -179.9976         estimate D2E/DX2                !
 ! D23   D(6,4,10,25)          -59.5289         estimate D2E/DX2                !
 ! D24   D(6,4,10,26)           61.7018         estimate D2E/DX2                !
 ! D25   D(1,5,6,3)           -169.1217         estimate D2E/DX2                !
 ! D26   D(1,5,6,4)             70.1743         estimate D2E/DX2                !
 ! D27   D(1,5,6,18)           -50.3078         estimate D2E/DX2                !
 ! D28   D(2,5,6,3)            -48.3587         estimate D2E/DX2                !
 ! D29   D(2,5,6,4)           -169.0627         estimate D2E/DX2                !
 ! D30   D(2,5,6,18)            70.4552         estimate D2E/DX2                !
 ! D31   D(17,5,6,3)            70.407          estimate D2E/DX2                !
 ! D32   D(17,5,6,4)           -50.297          estimate D2E/DX2                !
 ! D33   D(17,5,6,18)         -170.7791         estimate D2E/DX2                !
 ! D34   D(1,7,13,27)          179.884          estimate D2E/DX2                !
 ! D35   D(1,7,13,28)          -59.1968         estimate D2E/DX2                !
 ! D36   D(1,7,13,29)           59.036          estimate D2E/DX2                !
 ! D37   D(19,7,13,27)          59.4756         estimate D2E/DX2                !
 ! D38   D(19,7,13,28)        -179.6052         estimate D2E/DX2                !
 ! D39   D(19,7,13,29)         -61.3723         estimate D2E/DX2                !
 ! D40   D(20,7,13,27)         -59.4053         estimate D2E/DX2                !
 ! D41   D(20,7,13,28)          61.5139         estimate D2E/DX2                !
 ! D42   D(20,7,13,29)         179.7468         estimate D2E/DX2                !
 ! D43   D(2,8,14,30)          179.8759         estimate D2E/DX2                !
 ! D44   D(2,8,14,31)          -59.2303         estimate D2E/DX2                !
 ! D45   D(2,8,14,32)           59.0057         estimate D2E/DX2                !
 ! D46   D(21,8,14,30)          59.7315         estimate D2E/DX2                !
 ! D47   D(21,8,14,31)        -179.3746         estimate D2E/DX2                !
 ! D48   D(21,8,14,32)         -61.1387         estimate D2E/DX2                !
 ! D49   D(22,8,14,30)         -59.5797         estimate D2E/DX2                !
 ! D50   D(22,8,14,31)          61.3142         estimate D2E/DX2                !
 ! D51   D(22,8,14,32)         179.5501         estimate D2E/DX2                !
 ! D52   D(3,9,15,33)          179.8708         estimate D2E/DX2                !
 ! D53   D(3,9,15,34)          -59.2456         estimate D2E/DX2                !
 ! D54   D(3,9,15,35)           58.9967         estimate D2E/DX2                !
 ! D55   D(23,9,15,33)          59.7339         estimate D2E/DX2                !
 ! D56   D(23,9,15,34)        -179.3826         estimate D2E/DX2                !
 ! D57   D(23,9,15,35)         -61.1403         estimate D2E/DX2                !
 ! D58   D(24,9,15,33)         -59.5852         estimate D2E/DX2                !
 ! D59   D(24,9,15,34)          61.2984         estimate D2E/DX2                !
 ! D60   D(24,9,15,35)         179.5407         estimate D2E/DX2                !
 ! D61   D(4,10,16,36)         179.8686         estimate D2E/DX2                !
 ! D62   D(4,10,16,37)         -59.2148         estimate D2E/DX2                !
 ! D63   D(4,10,16,38)          59.0206         estimate D2E/DX2                !
 ! D64   D(25,10,16,36)         59.4706         estimate D2E/DX2                !
 ! D65   D(25,10,16,37)       -179.6128         estimate D2E/DX2                !
 ! D66   D(25,10,16,38)        -61.3774         estimate D2E/DX2                !
 ! D67   D(26,10,16,36)        -59.3901         estimate D2E/DX2                !
 ! D68   D(26,10,16,37)         61.5265         estimate D2E/DX2                !
 ! D69   D(26,10,16,38)        179.7619         estimate D2E/DX2                !
 --------------------------------------------------------------------------------
 Trust Radius=3.00D-01 FncErr=1.00D-07 GrdErr=1.00D-06 EigMax=2.50D+02 EigMin=1.00D-04
 Number of steps in this run=    184 maximum allowed number of steps=    228.
 GradGradGradGradGradGradGradGradGradGradGradGradGradGradGradGradGradGrad

                          Input orientation:                          
 ---------------------------------------------------------------------
 Center     Atomic      Atomic             Coordinates (Angstroms)
 Number     Number       Type             X           Y           Z
 ---------------------------------------------------------------------
      1          8           0        2.654900   -0.895400   -0.176300
      2          8           0        2.577000    1.452000    0.029500
      3          8           0       -2.578900    1.450400   -0.030700
      4          8           0       -2.653900   -0.897500    0.177200
      5          6           0        2.015400    0.209800    0.470800
      6          6           0       -2.017800    0.208200   -0.472400
      7          6           0        2.113000   -2.151600    0.212300
      8          6           0        3.967700    1.547100    0.310600
      9          6           0       -3.970200    1.544900   -0.308500
     10          6           0       -2.110600   -2.152800   -0.212400
     11          6           0        0.584100    0.216200    0.133500
     12          6           0       -0.585800    0.215700   -0.138300
     13          6           0        2.848800   -3.253700   -0.519800
     14          6           0        4.480700    2.882300   -0.184800
     15          6           0       -4.482400    2.880400    0.187300
     16          6           0       -2.842100   -3.256000    0.521900
     17          1           0        2.151400    0.127600    1.556300
     18          1           0       -2.156400    0.125000   -1.557500
     19          1           0        2.222300   -2.284400    1.294200
     20          1           0        1.059900   -2.228600   -0.056300
     21          1           0        4.132100    1.464400    1.390600
     22          1           0        4.514300    0.743900   -0.195100
     23          1           0       -4.137100    1.461600   -1.388000
     24          1           0       -4.515300    0.741900    0.199000
     25          1           0       -2.222800   -2.286200   -1.294000
     26          1           0       -1.056600   -2.228000    0.053000
     27          1           0        2.458000   -4.236700   -0.242400
     28          1           0        2.752900   -3.128100   -1.603400
     29          1           0        3.918800   -3.221400   -0.289300
     30          1           0        5.550000    2.990200    0.017800
     31          1           0        4.313100    2.984300   -1.262100
     32          1           0        3.944700    3.705100    0.299700
     33          1           0       -5.552100    2.987800   -0.012900
     34          1           0       -4.312400    2.982900    1.264200
     35          1           0       -3.947700    3.703000   -0.298900
     36          1           0       -2.450300   -4.238500    0.243600
     37          1           0       -2.743300   -3.130100    1.605300
     38          1           0       -3.912800   -3.225900    0.294600
 ---------------------------------------------------------------------
                    Distance matrix (angstroms):
                    1          2          3          4          5
     1  O    0.000000
     2  O    2.357691   0.000000
     3  O    5.737302   5.156252   0.000000
     4  O    5.320557   5.736225   2.358279   0.000000
     5  C    1.431491   1.432900   4.785205   4.807773   0.000000
     6  C    4.810378   4.786557   1.432827   1.431494   4.142020
     7  C    1.422218   3.637945   5.920083   4.929233   2.377511
     8  C    2.815372   1.422008   6.556204   7.059706   2.371816
     9  C    7.061479   6.556577   1.421907   2.816712   6.182007
    10  C    4.928727   5.918335   3.638045   1.422231   4.803386
    11  C    2.370621   2.347268   3.399232   3.424453   1.470521
    12  C    3.426095   3.399985   2.347021   2.369766   2.671569
    13  C    2.391060   4.745442   7.199146   6.026375   3.697523
    14  C    4.195788   2.390765   7.205001   8.082107   3.694560
    15  C    8.082693   7.204190   2.390761   4.197147   7.030923
    16  C    6.023033   7.195441   4.746034   2.390975   5.967385
    17  H    2.074113   2.065500   5.161793   5.103298   1.097070
    18  H    5.108575   5.165711   2.065505   2.074174   4.639516
    19  H    2.068534   3.960551   6.225401   5.191195   2.634735
    20  H    2.082270   3.981930   5.174607   3.952045   2.671443
    21  H    3.194675   2.066660   6.859870   7.287023   2.626875
    22  H    2.478916   2.074845   7.130193   7.363144   2.640679
    23  H    7.290743   6.862109   2.066489   3.196105   6.547931
    24  H    7.364331   7.129775   2.074700   2.480508   6.557976
    25  H    5.193798   6.226064   3.960418   2.068517   5.225598
    26  H    3.950143   5.171654   3.981837   2.082552   3.943933
    27  H    3.347749   5.696437   7.599887   6.120281   4.525032
    28  H    2.651635   4.865657   7.201676   6.113886   3.998473
    29  H    2.649620   4.872651   8.007040   6.987025   3.996726
    30  H    4.849450   3.347376   8.273594   9.079846   4.519871
    31  H    4.356680   2.651456   7.167207   8.104261   3.997526
    32  H    4.801537   2.649542   6.910151   8.046145   3.996073
    33  H    9.080792   8.273013   3.347213   4.850903   8.075785
    34  H    8.103056   7.164633   2.651480   4.357717   6.954180
    35  H    8.047027   6.909888   2.649481   4.802623   6.953664
    36  H    6.116837   7.596142   5.696961   3.347856   6.307255
    37  H    6.108072   7.196136   4.866673   2.651785   5.923449
    38  H    6.984816   8.004407   4.873694   2.649539   6.854096
                    6          7          8          9         10
     6  C    0.000000
     7  C    4.806348   0.000000
     8  C    6.183199   4.138835   0.000000
     9  C    2.371813   7.137273   7.962006   0.000000
    10  C    2.377085   4.244899   7.135021   4.140088   0.000000
    11  C    2.671528   2.819614   3.640248   4.764709   3.604610
    12  C    1.470477   3.607014   4.765344   3.640042   2.817853
    13  C    5.972503   1.513934   4.998918   8.340862   5.089413
    14  C    7.033067   5.577082   1.513720   8.556965   8.294470
    15  C    3.694606   8.295839   8.555529   1.513845   5.578378
    16  C    3.697132   5.086115   8.335934   5.001081   1.513717
    17  H    4.637278   2.646236   2.620247   6.554403   5.147151
    18  H    1.097075   5.151978   6.558717   2.620303   2.645707
    19  H    5.226125   1.095486   4.323689   7.455149   4.589247
    20  H    3.947578   1.089539   4.779731   6.293236   3.175245
    21  H    6.547525   4.305881   1.095567   8.278930   7.390876
    22  H    6.559893   3.783667   1.095278   8.522981   7.230524
    23  H    2.626931   7.394588   8.281324   1.095497   4.307276
    24  H    2.640667   7.232350   8.521860   1.095217   3.785647
    25  H    2.634214   4.591973   7.455952   4.324574   1.095556
    26  H    2.671146   3.174520   6.289780   4.780640   1.089499
    27  H    6.312117   2.161809   6.003111   8.645983   5.021518
    28  H    5.930399   2.158655   5.195828   8.289377   5.151672
    29  H    6.858491   2.158006   4.806336   9.217066   6.123846
    30  H    8.077835   6.187803   2.161468   9.634810   9.229747
    31  H    6.957776   5.778561   2.158293   8.461341   8.291899
    32  H    6.955275   6.137076   2.158150   8.226908   8.440610
    33  H    4.519800   9.231354   9.633632   2.161423   6.189466
    34  H    3.997490   8.291885   8.457596   2.158317   5.779592
    35  H    3.996028   8.442141   8.226357   2.158239   6.137818
    36  H    4.524694   5.017952   8.641087   6.005217   2.161823
    37  H    3.998429   5.146024   8.281906   5.198417   2.158578
    38  H    3.996543   6.121369   9.213255   4.809112   2.157897
                   11         12         13         14         15
    11  C    0.000000
    12  C    1.201058   0.000000
    13  C    4.194743   4.896811   0.000000
    14  C    4.732113   5.725586   6.358130   0.000000
    15  C    5.724533   4.731821   9.585075   8.970821   0.000000
    16  C    4.893452   4.192786   5.785455   9.581313   6.360656
    17  H    2.118641   3.220512   4.028616   4.005676   7.311592
    18  H    3.221512   2.118759   6.127354   7.316974   4.005850
    19  H    3.206856   4.023429   2.150033   5.829460   8.535420
    20  H    2.497890   2.947822   2.113250   6.151397   7.541771
    21  H    3.965679   5.114232   5.249472   2.147987   8.812638
    22  H    3.979060   5.127694   4.342825   2.138689   9.254808
    23  H    5.114266   3.965570   8.472935   8.816607   2.147975
    24  H    5.126844   3.978898   8.409011   9.255087   2.138785
    25  H    4.022244   3.205451   5.220782   8.537015   5.830420
    26  H    2.944909   2.495980   4.078273   7.538793   6.152227
    27  H    4.845732   5.394388   1.093602   7.401000   9.950221
    28  H    4.347972   4.947164   1.095062   6.412693   9.573831
    29  H    4.807918   5.668146   1.095022   6.130400  10.394194
    30  H    5.689343   6.735745   6.824352   1.093660  10.034433
    31  H    4.849280   5.738231   6.450413   1.095020   8.914728
    32  H    4.847028   5.735258   7.092071   1.095005   8.468104
    33  H    6.734697   5.688972  10.477996  10.034827   1.093560
    34  H    5.736621   4.848912   9.662330   8.912257   1.095043
    35  H    5.734279   4.846589   9.728149   8.469031   1.094973
    36  H    5.391109   4.843770   5.443627   9.946260   7.403468
    37  H    4.943229   4.346185   5.983553   9.567632   6.415708
    38  H    5.665343   4.806344   6.810525  10.391861   6.133747
                   16         17         18         19         20
    16  C    0.000000
    17  H    6.119949   0.000000
    18  H    4.028058   5.315346   0.000000
    19  H    5.214269   2.427234   5.754165   0.000000
    20  H    4.076208   3.056719   4.258828   1.782733   0.000000
    21  H    8.466185   2.395342   7.073225   4.208341   5.016989
    22  H    8.404160   3.005083   6.836476   4.079446   4.559375
    23  H    5.251713   7.070622   2.395496   7.852941   6.511514
    24  H    4.345925   6.831143   3.005040   7.466807   6.322334
    25  H    2.149776   5.751892   2.426464   5.143705   3.508752
    26  H    2.112975   4.254413   3.056122   3.506415   2.119320
    27  H    5.443986   4.730374   6.484335   2.495630   2.453932
    28  H    5.986425   4.576580   5.889482   3.064221   2.463507
    29  H    6.809480   4.212570   7.050871   2.502709   3.035334
    30  H   10.473608   4.702334   8.371352   6.365861   6.884937
    31  H    9.660274   4.558186   7.079356   6.218144   6.261916
    32  H    9.724553   4.194458   7.313667   6.311086   6.607390
    33  H    6.827529   8.365826   4.702360   9.483981   8.422070
    34  H    6.452648   7.072395   4.558280   8.393310   7.600333
    35  H    7.093923   7.309191   4.194629   8.743902   7.766517
    36  H    1.093739   6.477782   4.729743   5.172568   4.056001
    37  H    1.095157   5.879889   4.576399   5.046699   4.247110
    38  H    1.094975   7.043605   4.212333   6.286897   5.083845
                   21         22         23         24         25
    21  H    0.000000
    22  H    1.783155   0.000000
    23  H    8.723548   8.762695   0.000000
    24  H    8.758964   9.038196   1.783136   0.000000
    25  H    7.852314   7.468441   4.209440   4.080931   0.000000
    26  H    6.507350   6.318914   5.017879   4.561165   1.782644
    27  H    6.162130   5.388598   8.790811   8.579522   5.178822
    28  H    5.653077   4.480873   8.281536   8.429251   5.055899
    29  H    4.982397   4.010872   9.382705   9.331679   6.293113
    30  H    2.494611   2.482713   9.907209  10.314938   9.485654
    31  H    3.062625   2.489651   8.587220   9.225173   8.396260
    32  H    2.499183   3.055810   8.555531   8.964502   8.744919
    33  H    9.903246  10.315071   2.494476   2.482725   6.367145
    34  H    8.580874   9.222435   3.062556   2.489558   6.218861
    35  H    8.552714   8.965071   2.499177   3.055845   6.311578
    36  H    8.784456   8.574522   6.164297   5.391716   2.495485
    37  H    8.272040   8.421524   5.655637   4.484423   3.064152
    38  H    9.376596   9.328190   4.985390   4.014422   2.502556
                   26         27         28         29         30
    26  H    0.000000
    27  H    4.058885   0.000000
    28  H    4.250427   1.779967   0.000000
    29  H    5.085137   1.779598   1.759229   0.000000
    30  H    8.418908   7.864875   6.919946   6.429549   0.000000
    31  H    7.598107   7.524894   6.317606   6.293848   1.779916
    32  H    7.763732   8.097922   7.192691   6.951546   1.779758
    33  H    6.886104  10.789243  10.435849  11.328217  11.102143
    34  H    6.262645  10.011533   9.771689  10.423980   9.940850
    35  H    6.607500  10.201717   9.657313  10.479944   9.529674
    36  H    2.453740   4.932303   5.631846   6.471778  10.784706
    37  H    2.463408   5.629572   6.364273   6.926862  10.428665
    38  H    3.035136   6.472803   6.931344   7.853338  11.325242
                   31         32         33         34         35
    31  H    0.000000
    32  H    1.759116   0.000000
    33  H    9.943977   9.528979   0.000000
    34  H    8.987850   8.344551   1.779850   0.000000
    35  H    8.347760   7.915068   1.779721   1.759213   0.000000
    36  H   10.008974  10.198037   7.868060   7.527128   8.099626
    37  H    9.767326   9.651627   6.923628   6.320379   7.194985
    38  H   10.423787  10.477552   6.433656   6.296745   6.954359
                   36         37         38
    36  H    0.000000
    37  H    1.780064   0.000000
    38  H    1.779569   1.759216   0.000000
 Stoichiometry    C12H22O4
 Framework group  C1[X(C12H22O4)]
 Deg. of freedom   108
 Full point group                 C1      NOp   1
 Largest Abelian subgroup         C1      NOp   1
 Largest concise Abelian subgroup C1      NOp   1
                         Standard orientation:                         
 ---------------------------------------------------------------------
 Center     Atomic      Atomic             Coordinates (Angstroms)
 Number     Number       Type             X           Y           Z
 ---------------------------------------------------------------------
      1          8           0       -2.654861    0.863799   -0.176437
      2          8           0       -2.576887   -1.483599    0.029363
      3          8           0        2.579013   -1.481836   -0.030837
      4          8           0        2.653938    0.866067    0.177063
      5          6           0       -2.015326   -0.241381    0.470663
      6          6           0        2.017873   -0.239654   -0.472537
      7          6           0       -2.113001    2.120016    0.212163
      8          6           0       -3.967584   -1.578743    0.310463
      9          6           0        3.970316   -1.576292   -0.308637
     10          6           0        2.110599    2.121349   -0.212537
     11          6           0       -0.584026   -0.247736    0.133363
     12          6           0        0.585874   -0.247199   -0.138437
     13          6           0       -2.848836    3.222092   -0.519937
     14          6           0       -4.480542   -2.913959   -0.184937
     15          6           0        4.482558   -2.911776    0.187163
     16          6           0        2.842064    3.224572    0.521763
     17          1           0       -2.151329   -0.159186    1.556163
     18          1           0        2.156471   -0.156449   -1.557637
     19          1           0       -2.222305    2.252812    1.294063
     20          1           0       -1.059904    2.197049   -0.056437
     21          1           0       -4.131987   -1.496048    1.390463
     22          1           0       -4.514210   -0.775560   -0.195237
     23          1           0        4.137213   -1.492987   -1.388137
     24          1           0        4.515390   -0.773275    0.198863
     25          1           0        2.222795    2.254753   -1.294137
     26          1           0        1.056596    2.196516    0.052863
     27          1           0       -2.458067    4.205105   -0.242537
     28          1           0       -2.752932    3.096495   -1.603537
     29          1           0       -3.918835    3.189759   -0.289437
     30          1           0       -5.549839   -3.021893    0.017663
     31          1           0       -4.312939   -3.015954   -1.262237
     32          1           0       -3.944516   -3.736742    0.299563
     33          1           0        5.552261   -3.019142   -0.013037
     34          1           0        4.312561   -3.014281    1.264063
     35          1           0        3.947884   -3.734393   -0.299037
     36          1           0        2.450233    4.207060    0.243463
     37          1           0        2.743268    3.098669    1.605163
     38          1           0        3.912765    3.194506    0.294463
 ---------------------------------------------------------------------
 Rotational constants (GHZ):           0.5479003           0.2489239           0.1757620
 Standard basis: 6-311++G(d,p) (5D, 7F)
 There are   522 symmetry adapted cartesian basis functions of A   symmetry.
 There are   506 symmetry adapted basis functions of A   symmetry.
   506 basis functions,   774 primitive gaussians,   522 cartesian basis functions
    63 alpha electrons       63 beta electrons
       nuclear repulsion energy      1131.2311823338 Hartrees.
 NAtoms=   38 NActive=   38 NUniq=   38 SFac= 1.00D+00 NAtFMM=   60 NAOKFM=F Big=F
 Integral buffers will be    131072 words long.
 Raffenetti 2 integral format.
 Two-electron integral symmetry is turned on.
 R6APFD:  NTU= -4 IXU= 1 FactS= 1.050
 Nuclear repulsion after empirical dispersion term =     1131.2058329825 Hartrees.
 One-electron integrals computed using PRISM.
 NBasis=   506 RedAO= T EigKep=  1.73D-06  NBF=   506
 NBsUse=   504 1.00D-06 EigRej=  2.56D-07 NBFU=   504
 ExpMin= 3.60D-02 ExpMax= 8.59D+03 ExpMxC= 1.30D+03 IAcc=3 IRadAn=         5 AccDes= 0.00D+00
 Harris functional with IExCor= 1009 and IRadAn=       5 diagonalized for initial guess.
 HarFok:  IExCor= 1009 AccDes= 0.00D+00 IRadAn=         5 IDoV= 1 UseB2=F ITyADJ=14
 ICtDFT=  3500011 ScaDFX=  1.000000  1.000000  1.000000  1.000000
 FoFCou: FMM=F IPFlag=           0 FMFlag=      100000 FMFlg1=           0
         NFxFlg=           0 DoJE=T BraDBF=F KetDBF=T FulRan=T
         wScrn=  0.000000 ICntrl=       500 IOpCl=  0 I1Cent=   200000004 NGrid=           0
         NMat0=    1 NMatS0=      1 NMatT0=    0 NMatD0=    1 NMtDS0=    0 NMtDT0=    0
 Petite list used in FoFCou.
 Requested convergence on RMS density matrix=1.00D-08 within  32 cycles.
 Requested convergence on MAX density matrix=1.00D-06.
 Requested convergence on             energy=1.00D-06.
 No special actions if energy rises.
 SCF Done:  E(RM08HX) =  -771.302938798     A.U. after   14 cycles
            NFock= 14  Conv=0.30D-08     -V/T= 2.0047
 QCSCF skips out because SCF is already converged.

 **********************************************************************

            Population analysis using the SCF Density.

 **********************************************************************

 Orbital symmetries:
       Occupied  (A) (A) (A) (A) (A) (A) (A) (A) (A) (A) (A) (A)
                 (A) (A) (A) (A) (A) (A) (A) (A) (A) (A) (A) (A)
                 (A) (A) (A) (A) (A) (A) (A) (A) (A) (A) (A) (A)
                 (A) (A) (A) (A) (A) (A) (A) (A) (A) (A) (A) (A)
                 (A) (A) (A) (A) (A) (A) (A) (A) (A) (A) (A) (A)
                 (A) (A) (A)
       Virtual   (A) (A) (A) (A) (A) (A) (A) (A) (A) (A) (A) (A)
                 (A) (A) (A) (A) (A) (A) (A) (A) (A) (A) (A) (A)
                 (A) (A) (A) (A) (A) (A) (A) (A) (A) (A) (A) (A)
                 (A) (A) (A) (A) (A) (A) (A) (A) (A) (A) (A) (A)
                 (A) (A) (A) (A) (A) (A) (A) (A) (A) (A) (A) (A)
                 (A) (A) (A) (A) (A) (A) (A) (A) (A) (A) (A) (A)
                 (A) (A) (A) (A) (A) (A) (A) (A) (A) (A) (A) (A)
                 (A) (A) (A) (A) (A) (A) (A) (A) (A) (A) (A) (A)
                 (A) (A) (A) (A) (A) (A) (A) (A) (A) (A) (A) (A)
                 (A) (A) (A) (A) (A) (A) (A) (A) (A) (A) (A) (A)
                 (A) (A) (A) (A) (A) (A) (A) (A) (A) (A) (A) (A)
                 (A) (A) (A) (A) (A) (A) (A) (A) (A) (A) (A) (A)
                 (A) (A) (A) (A) (A) (A) (A) (A) (A) (A) (A) (A)
                 (A) (A) (A) (A) (A) (A) (A) (A) (A) (A) (A) (A)
                 (A) (A) (A) (A) (A) (A) (A) (A) (A) (A) (A) (A)
                 (A) (A) (A) (A) (A) (A) (A) (A) (A) (A) (A) (A)
                 (A) (A) (A) (A) (A) (A) (A) (A) (A) (A) (A) (A)
                 (A) (A) (A) (A) (A) (A) (A) (A) (A) (A) (A) (A)
                 (A) (A) (A) (A) (A) (A) (A) (A) (A) (A) (A) (A)
                 (A) (A) (A) (A) (A) (A) (A) (A) (A) (A) (A) (A)
                 (A) (A) (A) (A) (A) (A) (A) (A) (A) (A) (A) (A)
                 (A) (A) (A) (A) (A) (A) (A) (A) (A) (A) (A) (A)
                 (A) (A) (A) (A) (A) (A) (A) (A) (A) (A) (A) (A)
                 (A) (A) (A) (A) (A) (A) (A) (A) (A) (A) (A) (A)
                 (A) (A) (A) (A) (A) (A) (A) (A) (A) (A) (A) (A)
                 (A) (A) (A) (A) (A) (A) (A) (A) (A) (A) (A) (A)
                 (A) (A) (A) (A) (A) (A) (A) (A) (A) (A) (A) (A)
                 (A) (A) (A) (A) (A) (A) (A) (A) (A) (A) (A) (A)
                 (A) (A) (A) (A) (A) (A) (A) (A) (A) (A) (A) (A)
                 (A) (A) (A) (A) (A) (A) (A) (A) (A) (A) (A) (A)
                 (A) (A) (A) (A) (A) (A) (A) (A) (A) (A) (A) (A)
                 (A) (A) (A) (A) (A) (A) (A) (A) (A) (A) (A) (A)
                 (A) (A) (A) (A) (A) (A) (A) (A) (A) (A) (A) (A)
                 (A) (A) (A) (A) (A) (A) (A) (A) (A) (A) (A) (A)
                 (A) (A) (A) (A) (A) (A) (A) (A) (A) (A) (A) (A)
                 (A) (A) (A) (A) (A) (A) (A) (A) (A) (A) (A) (A)
                 (A) (A) (A) (A) (A) (A) (A) (A) (A)
 The electronic state is 1-A.
 Alpha  occ. eigenvalues --  -19.62825 -19.62821 -19.62614 -19.62608 -10.66450
 Alpha  occ. eigenvalues --  -10.66449 -10.58365 -10.58363 -10.57362 -10.57358
 Alpha  occ. eigenvalues --  -10.54221 -10.53940 -10.52372 -10.52372 -10.51535
 Alpha  occ. eigenvalues --  -10.51532  -1.19824  -1.19772  -1.13828  -1.13813
 Alpha  occ. eigenvalues --   -0.90997  -0.89004  -0.86434  -0.85597  -0.85076
 Alpha  occ. eigenvalues --   -0.79605  -0.75807  -0.71691  -0.71393  -0.69830
 Alpha  occ. eigenvalues --   -0.69643  -0.62615  -0.60722  -0.60359  -0.59716
 Alpha  occ. eigenvalues --   -0.59258  -0.59149  -0.55049  -0.54817  -0.52992
 Alpha  occ. eigenvalues --   -0.52905  -0.49002  -0.48802  -0.47464  -0.47407
 Alpha  occ. eigenvalues --   -0.46099  -0.45946  -0.45020  -0.44996  -0.43891
 Alpha  occ. eigenvalues --   -0.43846  -0.42680  -0.42624  -0.41679  -0.41442
 Alpha  occ. eigenvalues --   -0.40254  -0.40240  -0.35729  -0.35395  -0.35389
 Alpha  occ. eigenvalues --   -0.35273  -0.34712  -0.34160
 Alpha virt. eigenvalues --   -0.03479  -0.02379  -0.02034  -0.01745  -0.00972
 Alpha virt. eigenvalues --   -0.00733  -0.00502   0.00289   0.00398   0.01021
 Alpha virt. eigenvalues --    0.01218   0.01777   0.02066   0.02694   0.02743
 Alpha virt. eigenvalues --    0.03406   0.03530   0.03599   0.03824   0.04497
 Alpha virt. eigenvalues --    0.04528   0.04647   0.05188   0.05549   0.05861
 Alpha virt. eigenvalues --    0.06413   0.06859   0.07492   0.07845   0.08623
 Alpha virt. eigenvalues --    0.08769   0.09086   0.09392   0.09893   0.09953
 Alpha virt. eigenvalues --    0.10029   0.11134   0.11354   0.11650   0.11752
 Alpha virt. eigenvalues --    0.12102   0.12139   0.12585   0.12987   0.13208
 Alpha virt. eigenvalues --    0.13278   0.13538   0.14125   0.14149   0.14413
 Alpha virt. eigenvalues --    0.14602   0.14903   0.15309   0.15430   0.15945
 Alpha virt. eigenvalues --    0.16211   0.16361   0.17101   0.17357   0.17562
 Alpha virt. eigenvalues --    0.18454   0.18863   0.18872   0.19297   0.19372
 Alpha virt. eigenvalues --    0.20120   0.20417   0.20763   0.21051   0.21450
 Alpha virt. eigenvalues --    0.21736   0.21956   0.22571   0.22590   0.23332
 Alpha virt. eigenvalues --    0.23345   0.23508   0.24505   0.24630   0.24834
 Alpha virt. eigenvalues --    0.25001   0.25656   0.26012   0.26572   0.26985
 Alpha virt. eigenvalues --    0.27070   0.27633   0.27647   0.28079   0.29374
 Alpha virt. eigenvalues --    0.29467   0.29675   0.30764   0.31207   0.31636
 Alpha virt. eigenvalues --    0.32103   0.32198   0.32598   0.32824   0.32900
 Alpha virt. eigenvalues --    0.33229   0.34045   0.34219   0.34801   0.35097
 Alpha virt. eigenvalues --    0.35216   0.36613   0.37054   0.37627   0.38714
 Alpha virt. eigenvalues --    0.38719   0.39357   0.40326   0.40402   0.41322
 Alpha virt. eigenvalues --    0.41690   0.42800   0.43432   0.44676   0.45170
 Alpha virt. eigenvalues --    0.45336   0.45790   0.48001   0.48451   0.49436
 Alpha virt. eigenvalues --    0.49583   0.50913   0.51750   0.52592   0.53178
 Alpha virt. eigenvalues --    0.54367   0.54746   0.56131   0.56867   0.57372
 Alpha virt. eigenvalues --    0.58700   0.59648   0.60498   0.63342   0.64334
 Alpha virt. eigenvalues --    0.64562   0.64649   0.65459   0.65630   0.66673
 Alpha virt. eigenvalues --    0.67087   0.67440   0.67631   0.68151   0.68315
 Alpha virt. eigenvalues --    0.68839   0.69122   0.69899   0.70077   0.70800
 Alpha virt. eigenvalues --    0.71011   0.71486   0.71676   0.71940   0.72337
 Alpha virt. eigenvalues --    0.72479   0.73021   0.73125   0.74303   0.74576
 Alpha virt. eigenvalues --    0.75980   0.76568   0.76852   0.77438   0.78989
 Alpha virt. eigenvalues --    0.79162   0.79623   0.80742   0.82445   0.82613
 Alpha virt. eigenvalues --    0.83788   0.85903   0.86815   0.87992   0.89149
 Alpha virt. eigenvalues --    0.90541   0.91402   0.92855   0.95298   0.96353
 Alpha virt. eigenvalues --    0.99311   1.00601   1.01658   1.03234   1.03711
 Alpha virt. eigenvalues --    1.05812   1.07251   1.07741   1.08837   1.09566
 Alpha virt. eigenvalues --    1.11177   1.13269   1.14925   1.15220   1.18261
 Alpha virt. eigenvalues --    1.19669   1.21404   1.22557   1.26683   1.27791
 Alpha virt. eigenvalues --    1.28410   1.28498   1.29097   1.30357   1.30697
 Alpha virt. eigenvalues --    1.31167   1.33222   1.33263   1.33927   1.34802
 Alpha virt. eigenvalues --    1.35863   1.36418   1.36955   1.40466   1.42987
 Alpha virt. eigenvalues --    1.43383   1.47751   1.49204   1.49534   1.49557
 Alpha virt. eigenvalues --    1.49829   1.49891   1.51419   1.52329   1.54017
 Alpha virt. eigenvalues --    1.54734   1.57466   1.58448   1.58668   1.59520
 Alpha virt. eigenvalues --    1.59536   1.60325   1.60566   1.61005   1.61120
 Alpha virt. eigenvalues --    1.61565   1.61739   1.62829   1.63541   1.64631
 Alpha virt. eigenvalues --    1.65880   1.65910   1.66815   1.67156   1.67398
 Alpha virt. eigenvalues --    1.67615   1.68550   1.69341   1.70097   1.72271
 Alpha virt. eigenvalues --    1.72707   1.73132   1.73312   1.74502   1.75055
 Alpha virt. eigenvalues --    1.75828   1.76573   1.78133   1.78441   1.78677
 Alpha virt. eigenvalues --    1.79906   1.79981   1.81283   1.83178   1.84928
 Alpha virt. eigenvalues --    1.85012   1.86088   1.86093   1.88347   1.88696
 Alpha virt. eigenvalues --    1.90139   1.90439   1.90595   1.91979   1.96686
 Alpha virt. eigenvalues --    1.98514   1.99470   2.00406   2.01473   2.04349
 Alpha virt. eigenvalues --    2.04655   2.05530   2.06338   2.09897   2.12347
 Alpha virt. eigenvalues --    2.13178   2.14639   2.14766   2.15166   2.16864
 Alpha virt. eigenvalues --    2.19436   2.22123   2.23632   2.24373   2.24766
 Alpha virt. eigenvalues --    2.25767   2.31022   2.31102   2.31888   2.32488
 Alpha virt. eigenvalues --    2.37624   2.38025   2.39776   2.39793   2.44612
 Alpha virt. eigenvalues --    2.46896   2.47529   2.49014   2.49545   2.49857
 Alpha virt. eigenvalues --    2.50353   2.51355   2.51710   2.52154   2.52546
 Alpha virt. eigenvalues --    2.54203   2.54861   2.55618   2.56374   2.57156
 Alpha virt. eigenvalues --    2.57176   2.57489   2.60240   2.60535   2.60924
 Alpha virt. eigenvalues --    2.61017   2.62111   2.62858   2.63744   2.64224
 Alpha virt. eigenvalues --    2.64521   2.65389   2.65787   2.66376   2.67157
 Alpha virt. eigenvalues --    2.68085   2.68344   2.68991   2.69594   2.71674
 Alpha virt. eigenvalues --    2.74587   2.80136   2.80186   2.80598   2.80857
 Alpha virt. eigenvalues --    2.81182   2.81598   2.87880   2.89232   2.91939
 Alpha virt. eigenvalues --    2.92354   2.92607   2.93891   2.95079   2.97878
 Alpha virt. eigenvalues --    2.99611   3.01066   3.03391   3.03973   3.04930
 Alpha virt. eigenvalues --    3.09053   3.11955   3.14662   3.16058   3.19027
 Alpha virt. eigenvalues --    3.21347   3.23269   3.25337   3.25829   3.27418
 Alpha virt. eigenvalues --    3.29889   3.31212   3.32332   3.32823   3.33149
 Alpha virt. eigenvalues --    3.35392   3.39478   3.40893   3.43750   3.44289
 Alpha virt. eigenvalues --    3.46530   3.66598   3.81353   3.81505   3.81805
 Alpha virt. eigenvalues --    3.82155   3.82545   3.84699   3.84751   3.85263
 Alpha virt. eigenvalues --    3.85463   3.87349   3.87467   3.87843   3.89542
 Alpha virt. eigenvalues --    3.98954   4.03438   4.09468   4.09537   4.12971
 Alpha virt. eigenvalues --    4.15904   4.21634   4.21736   4.32196   4.32946
 Alpha virt. eigenvalues --    4.33954   4.34204   4.42038   5.23900   5.24236
 Alpha virt. eigenvalues --    5.27133   5.27293   5.45067   5.47457   5.53854
 Alpha virt. eigenvalues --    5.54218   5.73223   5.73704   5.85453   5.85681
 Alpha virt. eigenvalues --   23.54639  23.81074  23.85866  23.92880  23.93231
 Alpha virt. eigenvalues --   23.93573  23.94802  24.03300  24.03838  24.04310
 Alpha virt. eigenvalues --   24.04340  25.15075  49.93584  49.94009  49.98636
 Alpha virt. eigenvalues --   49.98743
          Condensed to atoms (all electrons):
               1          2          3          4          5          6
     1  O    8.073374  -0.055503  -0.000691  -0.000235   0.334231   0.027082
     2  O   -0.055503   8.218370   0.001907  -0.000691  -0.377960   0.063727
     3  O   -0.000691   0.001907   8.218299  -0.055534   0.063616  -0.378755
     4  O   -0.000235  -0.000691  -0.055534   8.072435   0.027694   0.332929
     5  C    0.334231  -0.377960   0.063616   0.027694  16.395064  -5.139475
     6  C    0.027082   0.063727  -0.378755   0.332929  -5.139475  16.393441
     7  C    0.137887   0.005419  -0.001969   0.010696   0.008111  -0.160888
     8  C   -0.006764   0.232432   0.000715  -0.000232  -0.419751  -0.019720
     9  C   -0.000241   0.000737   0.232953  -0.006940  -0.018337  -0.426248
    10  C    0.010872  -0.001982   0.005303   0.138839  -0.160519   0.003905
    11  C   -0.218653   0.199759  -0.025021  -0.027378  -4.620546   0.373598
    12  C   -0.026787  -0.025464   0.200209  -0.217178   0.368894  -4.617459
    13  C   -0.041957  -0.003740  -0.000176  -0.000283   0.058563  -0.064868
    14  C    0.020080  -0.156709   0.000206   0.000090   0.424718  -0.057517
    15  C    0.000089   0.000206  -0.157066   0.020080  -0.057628   0.425701
    16  C   -0.000313  -0.000174  -0.003701  -0.041584  -0.066472   0.062170
    17  H   -0.066949  -0.044106  -0.000339   0.000542   0.103749   0.049156
    18  H    0.000542  -0.000379  -0.043892  -0.067062   0.048657   0.104419
    19  H   -0.057813   0.003407  -0.000077   0.000367  -0.128976   0.019028
    20  H   -0.125223  -0.011271   0.005268  -0.014741  -0.238718   0.262443
    21  H   -0.014362  -0.059096   0.000010  -0.000011  -0.058229   0.006973
    22  H    0.017556  -0.048544  -0.000041  -0.000020  -0.014332  -0.000233
    23  H   -0.000010   0.000012  -0.059152  -0.014354   0.006976  -0.058048
    24  H   -0.000020  -0.000042  -0.048649   0.017681  -0.000272  -0.014198
    25  H    0.000380  -0.000074   0.003380  -0.057949   0.019426  -0.130232
    26  H   -0.015037   0.005243  -0.011316  -0.125802   0.264169  -0.238843
    27  H    0.022484   0.000321   0.000005   0.000026   0.012778  -0.001278
    28  H   -0.015123   0.001290   0.000040   0.000144  -0.011048  -0.002680
    29  H   -0.010174  -0.000584  -0.000002   0.000078   0.014240  -0.003545
    30  H    0.001028   0.024376   0.000010  -0.000002  -0.009399   0.000137
    31  H   -0.002544  -0.010657  -0.000006   0.000003  -0.001568   0.001156
    32  H   -0.000314  -0.010061  -0.000027   0.000001  -0.011466   0.000560
    33  H   -0.000002   0.000010   0.024377   0.001026   0.000134  -0.009370
    34  H    0.000003  -0.000006  -0.010643  -0.002539   0.001161  -0.001664
    35  H    0.000001  -0.000027  -0.010064  -0.000311   0.000568  -0.011539
    36  H    0.000027   0.000005   0.000322   0.022487  -0.001301   0.012918
    37  H    0.000145   0.000041   0.001293  -0.015118  -0.002755  -0.011035
    38  H    0.000077  -0.000002  -0.000585  -0.010180  -0.003591   0.014367
               7          8          9         10         11         12
     1  O    0.137887  -0.006764  -0.000241   0.010872  -0.218653  -0.026787
     2  O    0.005419   0.232432   0.000737  -0.001982   0.199759  -0.025464
     3  O   -0.001969   0.000715   0.232953   0.005303  -0.025021   0.200209
     4  O    0.010696  -0.000232  -0.006940   0.138839  -0.027378  -0.217178
     5  C    0.008111  -0.419751  -0.018337  -0.160519  -4.620546   0.368894
     6  C   -0.160888  -0.019720  -0.426248   0.003905   0.373598  -4.617459
     7  C    6.451347   0.013905  -0.004503  -0.167499  -0.102726  -0.057019
     8  C    0.013905   5.982119   0.000514  -0.004536  -0.066882  -0.091516
     9  C   -0.004503   0.000514   5.981655   0.013293  -0.090246  -0.062757
    10  C   -0.167499  -0.004536   0.013293   6.457042  -0.057743  -0.099638
    11  C   -0.102726  -0.066882  -0.090246  -0.057743   9.648218   0.567154
    12  C   -0.057019  -0.091516  -0.062757  -0.099638   0.567154   9.644110
    13  C   -0.245395  -0.012435  -0.002416  -0.021121  -0.149102   0.039284
    14  C    0.014004  -0.194537   0.000116  -0.000868  -0.316686  -0.072061
    15  C   -0.000871   0.000114  -0.195579   0.014095  -0.071854  -0.316530
    16  C   -0.021363  -0.002451  -0.012066  -0.246965   0.039969  -0.152524
    17  H   -0.004295   0.018365   0.000078   0.002445   0.085422   0.017786
    18  H    0.002330   0.000077   0.018810  -0.003608   0.017982   0.084896
    19  H    0.489382  -0.012233   0.000196  -0.004808   0.062223   0.013076
    20  H   -0.362726  -0.021121   0.014239   0.357600   0.214315  -0.033113
    21  H    0.007968   0.434231   0.000106  -0.000039   0.051030   0.008325
    22  H   -0.026696   0.394911  -0.000111   0.000581   0.014532   0.003734
    23  H   -0.000036   0.000105   0.434239   0.007942   0.008322   0.050598
    24  H    0.000573  -0.000110   0.395197  -0.026622   0.003684   0.014569
    25  H   -0.004937   0.000209  -0.012240   0.490899   0.013168   0.062751
    26  H    0.357673   0.014327  -0.021130  -0.369409  -0.033017   0.216136
    27  H   -0.059459   0.001478  -0.000035   0.001374  -0.010199   0.001105
    28  H    0.031259   0.000150  -0.000129  -0.008320   0.003107   0.003150
    29  H   -0.036793   0.002282  -0.000023  -0.000331  -0.005874  -0.001622
    30  H   -0.000286  -0.051615   0.000000  -0.000023   0.000624   0.000083
    31  H    0.002005  -0.028248  -0.000001  -0.000063   0.004567   0.001636
    32  H   -0.001484  -0.021625   0.000024   0.000030   0.007821   0.000822
    33  H   -0.000023  -0.000000  -0.051610  -0.000284   0.000078   0.000593
    34  H   -0.000063  -0.000002  -0.028222   0.002004   0.001596   0.004545
    35  H    0.000030   0.000024  -0.021519  -0.001489   0.000848   0.007884
    36  H    0.001347  -0.000035   0.001483  -0.059468   0.001099  -0.010299
    37  H   -0.008308  -0.000131   0.000146   0.031115   0.003230   0.003058
    38  H   -0.000326  -0.000024   0.002266  -0.036816  -0.001603  -0.005974
              13         14         15         16         17         18
     1  O   -0.041957   0.020080   0.000089  -0.000313  -0.066949   0.000542
     2  O   -0.003740  -0.156709   0.000206  -0.000174  -0.044106  -0.000379
     3  O   -0.000176   0.000206  -0.157066  -0.003701  -0.000339  -0.043892
     4  O   -0.000283   0.000090   0.020080  -0.041584   0.000542  -0.067062
     5  C    0.058563   0.424718  -0.057628  -0.066472   0.103749   0.048657
     6  C   -0.064868  -0.057517   0.425701   0.062170   0.049156   0.104419
     7  C   -0.245395   0.014004  -0.000871  -0.021363  -0.004295   0.002330
     8  C   -0.012435  -0.194537   0.000114  -0.002451   0.018365   0.000077
     9  C   -0.002416   0.000116  -0.195579  -0.012066   0.000078   0.018810
    10  C   -0.021121  -0.000868   0.014095  -0.246965   0.002445  -0.003608
    11  C   -0.149102  -0.316686  -0.071854   0.039969   0.085422   0.017982
    12  C    0.039284  -0.072061  -0.316530  -0.152524   0.017786   0.084896
    13  C    6.262094   0.014234  -0.000028   0.001551  -0.009547   0.001800
    14  C    0.014234   6.116284  -0.000249  -0.000029   0.004717   0.000655
    15  C   -0.000028  -0.000249   6.116169   0.014284   0.000662   0.004818
    16  C    0.001551  -0.000029   0.014284   6.264960   0.001866  -0.009545
    17  H   -0.009547   0.004717   0.000662   0.001866   0.561722  -0.000322
    18  H    0.001800   0.000655   0.004818  -0.009545  -0.000322   0.561745
    19  H   -0.032874   0.002993  -0.000037   0.003408   0.024212   0.000135
    20  H   -0.226150  -0.018484   0.002611   0.024516  -0.037549  -0.001020
    21  H   -0.005664  -0.088749   0.000018   0.000028   0.022692  -0.000040
    22  H    0.008865  -0.031510   0.000002   0.000122  -0.010844   0.000009
    23  H    0.000029   0.000018  -0.088493  -0.005651  -0.000040   0.022652
    24  H    0.000121   0.000002  -0.031719   0.008815   0.000008  -0.010871
    25  H    0.003425  -0.000036   0.002997  -0.032956   0.000134   0.024221
    26  H    0.023702   0.002593  -0.018702  -0.228423  -0.001491  -0.038396
    27  H    0.400119  -0.000032   0.000010   0.000729   0.002348   0.000111
    28  H    0.398707   0.000456  -0.000021  -0.000058   0.000832  -0.000088
    29  H    0.374910   0.000025  -0.000006  -0.000592  -0.001290  -0.000103
    30  H    0.000767   0.402659   0.000001  -0.000002   0.002098   0.000003
    31  H   -0.000910   0.384598   0.000002  -0.000018   0.000711   0.000012
    32  H   -0.000329   0.393549  -0.000007   0.000000  -0.003030  -0.000034
    33  H   -0.000002   0.000001   0.402655   0.000769   0.000004   0.002099
    34  H   -0.000018   0.000002   0.384686  -0.000910   0.000012   0.000699
    35  H    0.000000  -0.000007   0.393430  -0.000330  -0.000035  -0.003020
    36  H    0.000746   0.000011  -0.000029   0.400294   0.000112   0.002349
    37  H   -0.000039  -0.000021   0.000458   0.398928  -0.000080   0.000858
    38  H   -0.000597  -0.000006   0.000040   0.374710  -0.000101  -0.001285
              19         20         21         22         23         24
     1  O   -0.057813  -0.125223  -0.014362   0.017556  -0.000010  -0.000020
     2  O    0.003407  -0.011271  -0.059096  -0.048544   0.000012  -0.000042
     3  O   -0.000077   0.005268   0.000010  -0.000041  -0.059152  -0.048649
     4  O    0.000367  -0.014741  -0.000011  -0.000020  -0.014354   0.017681
     5  C   -0.128976  -0.238718  -0.058229  -0.014332   0.006976  -0.000272
     6  C    0.019028   0.262443   0.006973  -0.000233  -0.058048  -0.014198
     7  C    0.489382  -0.362726   0.007968  -0.026696  -0.000036   0.000573
     8  C   -0.012233  -0.021121   0.434231   0.394911   0.000105  -0.000110
     9  C    0.000196   0.014239   0.000106  -0.000111   0.434239   0.395197
    10  C   -0.004808   0.357600  -0.000039   0.000581   0.007942  -0.026622
    11  C    0.062223   0.214315   0.051030   0.014532   0.008322   0.003684
    12  C    0.013076  -0.033113   0.008325   0.003734   0.050598   0.014569
    13  C   -0.032874  -0.226150  -0.005664   0.008865   0.000029   0.000121
    14  C    0.002993  -0.018484  -0.088749  -0.031510   0.000018   0.000002
    15  C   -0.000037   0.002611   0.000018   0.000002  -0.088493  -0.031719
    16  C    0.003408   0.024516   0.000028   0.000122  -0.005651   0.008815
    17  H    0.024212  -0.037549   0.022692  -0.010844  -0.000040   0.000008
    18  H    0.000135  -0.001020  -0.000040   0.000009   0.022652  -0.010871
    19  H    0.603334  -0.204367   0.002060   0.001259  -0.000002  -0.000019
    20  H   -0.204367   2.089479  -0.006503   0.009874   0.000786  -0.002311
    21  H    0.002060  -0.006503   0.615400  -0.094835   0.000010  -0.000012
    22  H    0.001259   0.009874  -0.094835   0.575307  -0.000012   0.000010
    23  H   -0.000002   0.000786   0.000010  -0.000012   0.615445  -0.094814
    24  H   -0.000019  -0.002311  -0.000012   0.000010  -0.094814   0.575148
    25  H   -0.000795   0.013700  -0.000003  -0.000019   0.002067   0.001241
    26  H    0.013424  -0.779663   0.000802  -0.002332  -0.006504   0.009852
    27  H   -0.012313   0.008607   0.000136   0.000208  -0.000004   0.000007
    28  H    0.016437  -0.107062   0.000277  -0.001721  -0.000014   0.000011
    29  H   -0.018388   0.030119   0.000662  -0.004028   0.000006  -0.000000
    30  H    0.000033  -0.000561  -0.004090  -0.006587  -0.000001   0.000000
    31  H   -0.000307   0.000764   0.010582  -0.015923   0.000003  -0.000002
    32  H   -0.000143   0.000560  -0.017391   0.009661   0.000004   0.000001
    33  H   -0.000003   0.000095  -0.000001   0.000000  -0.004079  -0.006588
    34  H    0.000003  -0.000049   0.000003  -0.000002   0.010598  -0.015911
    35  H    0.000000  -0.000017   0.000004   0.000001  -0.017400   0.009667
    36  H    0.000603  -0.005324  -0.000004   0.000007   0.000138   0.000208
    37  H   -0.001754   0.028537  -0.000014   0.000011   0.000272  -0.001710
    38  H    0.000526  -0.000176   0.000006  -0.000000   0.000655  -0.004007
              25         26         27         28         29         30
     1  O    0.000380  -0.015037   0.022484  -0.015123  -0.010174   0.001028
     2  O   -0.000074   0.005243   0.000321   0.001290  -0.000584   0.024376
     3  O    0.003380  -0.011316   0.000005   0.000040  -0.000002   0.000010
     4  O   -0.057949  -0.125802   0.000026   0.000144   0.000078  -0.000002
     5  C    0.019426   0.264169   0.012778  -0.011048   0.014240  -0.009399
     6  C   -0.130232  -0.238843  -0.001278  -0.002680  -0.003545   0.000137
     7  C   -0.004937   0.357673  -0.059459   0.031259  -0.036793  -0.000286
     8  C    0.000209   0.014327   0.001478   0.000150   0.002282  -0.051615
     9  C   -0.012240  -0.021130  -0.000035  -0.000129  -0.000023   0.000000
    10  C    0.490899  -0.369409   0.001374  -0.008320  -0.000331  -0.000023
    11  C    0.013168  -0.033017  -0.010199   0.003107  -0.005874   0.000624
    12  C    0.062751   0.216136   0.001105   0.003150  -0.001622   0.000083
    13  C    0.003425   0.023702   0.400119   0.398707   0.374910   0.000767
    14  C   -0.000036   0.002593  -0.000032   0.000456   0.000025   0.402659
    15  C    0.002997  -0.018702   0.000010  -0.000021  -0.000006   0.000001
    16  C   -0.032956  -0.228423   0.000729  -0.000058  -0.000592  -0.000002
    17  H    0.000134  -0.001491   0.002348   0.000832  -0.001290   0.002098
    18  H    0.024221  -0.038396   0.000111  -0.000088  -0.000103   0.000003
    19  H   -0.000795   0.013424  -0.012313   0.016437  -0.018388   0.000033
    20  H    0.013700  -0.779663   0.008607  -0.107062   0.030119  -0.000561
    21  H   -0.000003   0.000802   0.000136   0.000277   0.000662  -0.004090
    22  H   -0.000019  -0.002332   0.000208  -0.001721  -0.004028  -0.006587
    23  H    0.002067  -0.006504  -0.000004  -0.000014   0.000006  -0.000001
    24  H    0.001241   0.009852   0.000007   0.000011  -0.000000   0.000000
    25  H    0.603710  -0.206073   0.000599  -0.001745   0.000524  -0.000003
    26  H   -0.206073   2.103101  -0.005410   0.028558  -0.000140   0.000095
    27  H    0.000599  -0.005410   0.524198  -0.040746  -0.034923   0.000027
    28  H   -0.001745   0.028558  -0.040746   0.513358  -0.040802   0.000041
    29  H    0.000524  -0.000140  -0.034923  -0.040802   0.522624  -0.000107
    30  H   -0.000003   0.000095   0.000027   0.000041  -0.000107   0.524488
    31  H    0.000003  -0.000050  -0.000029   0.000040   0.000082  -0.034311
    32  H    0.000000  -0.000015  -0.000004  -0.000033   0.000029  -0.038033
    33  H    0.000032  -0.000563   0.000000  -0.000000   0.000000   0.000000
    34  H   -0.000304   0.000760  -0.000001   0.000001   0.000000  -0.000000
    35  H   -0.000144   0.000570  -0.000000   0.000000  -0.000000  -0.000000
    36  H   -0.012335   0.008262  -0.000912   0.000229   0.000003   0.000000
    37  H    0.016442  -0.107231   0.000229  -0.000338  -0.000044  -0.000000
    38  H   -0.018340   0.030419   0.000003  -0.000044  -0.000022   0.000000
              31         32         33         34         35         36
     1  O   -0.002544  -0.000314  -0.000002   0.000003   0.000001   0.000027
     2  O   -0.010657  -0.010061   0.000010  -0.000006  -0.000027   0.000005
     3  O   -0.000006  -0.000027   0.024377  -0.010643  -0.010064   0.000322
     4  O    0.000003   0.000001   0.001026  -0.002539  -0.000311   0.022487
     5  C   -0.001568  -0.011466   0.000134   0.001161   0.000568  -0.001301
     6  C    0.001156   0.000560  -0.009370  -0.001664  -0.011539   0.012918
     7  C    0.002005  -0.001484  -0.000023  -0.000063   0.000030   0.001347
     8  C   -0.028248  -0.021625  -0.000000  -0.000002   0.000024  -0.000035
     9  C   -0.000001   0.000024  -0.051610  -0.028222  -0.021519   0.001483
    10  C   -0.000063   0.000030  -0.000284   0.002004  -0.001489  -0.059468
    11  C    0.004567   0.007821   0.000078   0.001596   0.000848   0.001099
    12  C    0.001636   0.000822   0.000593   0.004545   0.007884  -0.010299
    13  C   -0.000910  -0.000329  -0.000002  -0.000018   0.000000   0.000746
    14  C    0.384598   0.393549   0.000001   0.000002  -0.000007   0.000011
    15  C    0.000002  -0.000007   0.402655   0.384686   0.393430  -0.000029
    16  C   -0.000018   0.000000   0.000769  -0.000910  -0.000330   0.400294
    17  H    0.000711  -0.003030   0.000004   0.000012  -0.000035   0.000112
    18  H    0.000012  -0.000034   0.002099   0.000699  -0.003020   0.002349
    19  H   -0.000307  -0.000143  -0.000003   0.000003   0.000000   0.000603
    20  H    0.000764   0.000560   0.000095  -0.000049  -0.000017  -0.005324
    21  H    0.010582  -0.017391  -0.000001   0.000003   0.000004  -0.000004
    22  H   -0.015923   0.009661   0.000000  -0.000002   0.000001   0.000007
    23  H    0.000003   0.000004  -0.004079   0.010598  -0.017400   0.000138
    24  H   -0.000002   0.000001  -0.006588  -0.015911   0.009667   0.000208
    25  H    0.000003   0.000000   0.000032  -0.000304  -0.000144  -0.012335
    26  H   -0.000050  -0.000015  -0.000563   0.000760   0.000570   0.008262
    27  H   -0.000029  -0.000004   0.000000  -0.000001  -0.000000  -0.000912
    28  H    0.000040  -0.000033  -0.000000   0.000001   0.000000   0.000229
    29  H    0.000082   0.000029   0.000000   0.000000  -0.000000   0.000003
    30  H   -0.034311  -0.038033   0.000000  -0.000000  -0.000000   0.000000
    31  H    0.517396  -0.048014  -0.000000   0.000001   0.000004  -0.000001
    32  H   -0.048014   0.526546  -0.000000   0.000004  -0.000005  -0.000000
    33  H   -0.000000  -0.000000   0.524443  -0.034309  -0.038025   0.000027
    34  H    0.000001   0.000004  -0.034309   0.517393  -0.047984  -0.000029
    35  H    0.000004  -0.000005  -0.038025  -0.047984   0.526491  -0.000004
    36  H   -0.000001  -0.000000   0.000027  -0.000029  -0.000004   0.524216
    37  H    0.000001   0.000000   0.000041   0.000040  -0.000033  -0.040720
    38  H    0.000000  -0.000000  -0.000106   0.000081   0.000028  -0.034940
              37         38
     1  O    0.000145   0.000077
     2  O    0.000041  -0.000002
     3  O    0.001293  -0.000585
     4  O   -0.015118  -0.010180
     5  C   -0.002755  -0.003591
     6  C   -0.011035   0.014367
     7  C   -0.008308  -0.000326
     8  C   -0.000131  -0.000024
     9  C    0.000146   0.002266
    10  C    0.031115  -0.036816
    11  C    0.003230  -0.001603
    12  C    0.003058  -0.005974
    13  C   -0.000039  -0.000597
    14  C   -0.000021  -0.000006
    15  C    0.000458   0.000040
    16  C    0.398928   0.374710
    17  H   -0.000080  -0.000101
    18  H    0.000858  -0.001285
    19  H   -0.001754   0.000526
    20  H    0.028537  -0.000176
    21  H   -0.000014   0.000006
    22  H    0.000011  -0.000000
    23  H    0.000272   0.000655
    24  H   -0.001710  -0.004007
    25  H    0.016442  -0.018340
    26  H   -0.107231   0.030419
    27  H    0.000229   0.000003
    28  H   -0.000338  -0.000044
    29  H   -0.000044  -0.000022
    30  H   -0.000000   0.000000
    31  H    0.000001   0.000000
    32  H    0.000000  -0.000000
    33  H    0.000041  -0.000106
    34  H    0.000040   0.000081
    35  H   -0.000033   0.000028
    36  H   -0.040720  -0.034940
    37  H    0.513463  -0.040865
    38  H   -0.040865   0.522494
 Mulliken charges:
               1
     1  O    0.012855
     2  O    0.049811
     3  O    0.049794
     4  O    0.013025
     5  C   -0.810407
     6  C   -0.806114
     7  C   -0.266271
     8  C   -0.141988
     9  C   -0.141698
    10  C   -0.265185
    11  C    0.475184
    12  C    0.475545
    13  C   -0.771266
    14  C   -0.844511
    15  C   -0.844309
    16  C   -0.770991
    17  H    0.280348
    18  H    0.279786
    19  H    0.218803
    20  H    0.132639
    21  H    0.187718
    22  H    0.221140
    23  H    0.187738
    24  H    0.221082
    25  H    0.218877
    26  H    0.129862
    27  H    0.188441
    28  H    0.231882
    29  H    0.213811
    30  H    0.188551
    31  H    0.219085
    32  H    0.212401
    33  H    0.188581
    34  H    0.219067
    35  H    0.212401
    36  H    0.188510
    37  H    0.231888
    38  H    0.213917
 Sum of Mulliken charges =  -0.00000
 Mulliken charges with hydrogens summed into heavy atoms:
               1
     1  O    0.012855
     2  O    0.049811
     3  O    0.049794
     4  O    0.013025
     5  C   -0.530059
     6  C   -0.526328
     7  C    0.085171
     8  C    0.266869
     9  C    0.267122
    10  C    0.083555
    11  C    0.475184
    12  C    0.475545
    13  C   -0.137132
    14  C   -0.224474
    15  C   -0.224261
    16  C   -0.136676
 Electronic spatial extent (au):  <R**2>=           6246.7946
 Charge=             -0.0000 electrons
 Dipole moment (field-independent basis, Debye):
    X=              0.0032    Y=              2.6016    Z=              0.0030  Tot=              2.6016
 Quadrupole moment (field-independent basis, Debye-Ang):
   XX=            -89.0958   YY=            -94.9310   ZZ=            -99.4262
   XY=             -0.0102   XZ=             -8.3149   YZ=             -0.0125
 Traceless Quadrupole moment (field-independent basis, Debye-Ang):
   XX=              5.3885   YY=             -0.4467   ZZ=             -4.9418
   XY=             -0.0102   XZ=             -8.3149   YZ=             -0.0125
 Octapole moment (field-independent basis, Debye-Ang**2):
  XXX=              0.1316  YYY=             20.8454  ZZZ=              0.0097  XYY=             -0.0239
  XXY=            -29.0575  XXZ=              0.0042  XZZ=              0.0109  YZZ=             -1.5922
  YYZ=              0.0127  XYZ=              1.5074
 Hexadecapole moment (field-independent basis, Debye-Ang**3):
 XXXX=          -5217.3929 YYYY=          -2602.9295 ZZZZ=           -238.1756 XXXY=             -0.1943
 XXXZ=            -51.8153 YYYX=              0.0009 YYYZ=             -0.0067 ZZZX=             -4.2664
 ZZZY=              0.0168 XXYY=          -1284.6073 XXZZ=           -960.9112 YYZZ=           -485.7749
 XXYZ=             -0.0835 YYXZ=             -4.0145 ZZXY=             -0.0035
 N-N= 1.131205832982D+03 E-N=-4.061914390015D+03  KE= 7.676709624188D+02
 R6APFD:  NTU= -4 IXU= 1 FactS= 1.050
 Calling FoFJK, ICntrl=      2127 FMM=F ISym2X=0 I1Cent= 0 IOpClX= 0 NMat=1 NMatS=1 NMatT=0.
 ***** Axes restored to original set *****
 -------------------------------------------------------------------
 Center     Atomic                   Forces (Hartrees/Bohr)
 Number     Number              X              Y              Z
 -------------------------------------------------------------------
      1        8          -0.004195341    0.011415597    0.005406011
      2        8          -0.008059849   -0.028516837    0.003850519
      3        8           0.008092686   -0.028552191   -0.003799862
      4        8           0.004109851    0.011457071   -0.005430135
      5        6           0.009453717    0.011741485   -0.020081161
      6        6          -0.009259486    0.011716457    0.020023015
      7        6           0.008141581   -0.002668772   -0.003956842
      8        6           0.003013252    0.000881841   -0.003416517
      9        6          -0.003027829    0.000970128    0.003432490
     10        6          -0.008161137   -0.002708464    0.003849563
     11        6          -0.006096452    0.005575199   -0.000873658
     12        6           0.006163198    0.005666792    0.000906395
     13        6           0.008498516    0.002760815   -0.003334333
     14        6          -0.006594284    0.005334119   -0.002080983
     15        6           0.006653475    0.005231317    0.002091946
     16        6          -0.008506789    0.002589542    0.003479087
     17        1           0.001726036   -0.002707543    0.006142168
     18        1          -0.001764985   -0.002709753   -0.006129788
     19        1          -0.002032170    0.001203072    0.005700920
     20        1          -0.008352953    0.005677763    0.001437133
     21        1          -0.000011975   -0.003069810    0.005531178
     22        1          -0.001143727   -0.004695540    0.000862874
     23        1          -0.000018002   -0.003085246   -0.005569613
     24        1           0.001112349   -0.004726900   -0.000845383
     25        1           0.002020872    0.001217540   -0.005674401
     26        1           0.008347404    0.005730257   -0.001441474
     27        1          -0.000856495   -0.000801666    0.000773265
     28        1          -0.001811695   -0.000003108   -0.000579790
     29        1           0.000946935   -0.001185152    0.001228649
     30        1           0.001109143   -0.000605652    0.000487140
     31        1           0.000972376   -0.001244275   -0.001053079
     32        1           0.000437787    0.000910879    0.001525332
     33        1          -0.001172673   -0.000590241   -0.000496999
     34        1          -0.000967080   -0.001229670    0.001037598
     35        1          -0.000431852    0.000919831   -0.001528282
     36        1           0.000837725   -0.000715594   -0.000759982
     37        1           0.001807350   -0.000005014    0.000521247
     38        1          -0.000979477   -0.001178275   -0.001234247
 -------------------------------------------------------------------
 Cartesian Forces:  Max     0.028552191 RMS     0.006378927

 GradGradGradGradGradGradGradGradGradGradGradGradGradGradGradGradGradGrad
 Berny optimization.
 FormGI is forming the generalized inverse of G from B-inverse, IUseBI=4.
 Internal  Forces:  Max     0.032692872 RMS     0.005012043
 Search for a local minimum.
 Step number   1 out of a maximum of  184
 All quantities printed in internal units (Hartrees-Bohrs-Radians)
 Mixed Optimization -- RFO/linear search
 Second derivative matrix not updated -- first step.
 ITU=  0
     Eigenvalues ---    0.00230   0.00582   0.00583   0.00584   0.00584
     Eigenvalues ---    0.01257   0.01258   0.01275   0.01275   0.01398
     Eigenvalues ---    0.01398   0.01401   0.01402   0.02644   0.02874
     Eigenvalues ---    0.04204   0.04358   0.05377   0.05377   0.05404
     Eigenvalues ---    0.05405   0.05647   0.05648   0.05650   0.05650
     Eigenvalues ---    0.05782   0.05782   0.05783   0.05783   0.06067
     Eigenvalues ---    0.06067   0.06177   0.06182   0.06185   0.06598
     Eigenvalues ---    0.08174   0.08250   0.09192   0.09198   0.11094
     Eigenvalues ---    0.11095   0.11200   0.11200   0.13679   0.13679
     Eigenvalues ---    0.13697   0.13698   0.16000   0.16000   0.16000
     Eigenvalues ---    0.16000   0.16000   0.16000   0.16000   0.16000
     Eigenvalues ---    0.16000   0.16000   0.16000   0.16000   0.18420
     Eigenvalues ---    0.19154   0.20516   0.20554   0.22045   0.22045
     Eigenvalues ---    0.22067   0.22067   0.25000   0.25000   0.25000
     Eigenvalues ---    0.25000   0.30958   0.30967   0.30980   0.30980
     Eigenvalues ---    0.34008   0.34008   0.34177   0.34178   0.34185
     Eigenvalues ---    0.34186   0.34210   0.34217   0.34223   0.34234
     Eigenvalues ---    0.34236   0.34239   0.34239   0.34241   0.34244
     Eigenvalues ---    0.34244   0.34384   0.34393   0.34400   0.34404
     Eigenvalues ---    0.34866   0.34871   0.35678   0.35683   0.40576
     Eigenvalues ---    0.40586   0.40775   0.40776   0.42126   0.42128
     Eigenvalues ---    0.42159   0.42174   1.04293
 RFO step:  Lambda=-1.54414724D-02 EMin= 2.30000000D-03
 Linear search not attempted -- first point.
 Iteration  1 RMS(Cart)=  0.14487110 RMS(Int)=  0.00212252
 Iteration  2 RMS(Cart)=  0.00472539 RMS(Int)=  0.00027073
 Iteration  3 RMS(Cart)=  0.00000600 RMS(Int)=  0.00027071
 Iteration  4 RMS(Cart)=  0.00000000 RMS(Int)=  0.00027071
 Variable       Old X    -DE/DX   Delta X   Delta X   Delta X     New X
                                 (Linear)    (Quad)   (Total)
    R1        2.70513  -0.01553   0.00000  -0.03669  -0.03669   2.66843
    R2        2.68760  -0.00578   0.00000  -0.01324  -0.01324   2.67437
    R3        2.70779  -0.03267   0.00000  -0.07756  -0.07756   2.63023
    R4        2.68721  -0.00197   0.00000  -0.00450  -0.00450   2.68271
    R5        2.70765  -0.03269   0.00000  -0.07760  -0.07760   2.63005
    R6        2.68701  -0.00190   0.00000  -0.00435  -0.00435   2.68267
[...]
 00039666,-0.00051709,-0.00080788,0.00000480,-0.00000956,-0.00002291,0.
 00000072,-0.00000040,-0.00000481,-0.00000143,-0.00000170,0.00000147,-0
 .00000054,0.00000007,-0.00000158,0.00000276,-0.00000219,-0.00000187,0.
 00000339,0.00000050,-0.00000031,-0.00000124,0.00000030,-0.00000107,-0.
 00000167,0.00000007,-0.00000002,-0.00465059,0.00559114,-0.03036721,0.0
 5796742,-0.00000212,-0.00003625,0.00000634,0.00001686,-0.00000896,-0.0
 0000461,-0.00125082,0.00064434,0.00158642,-0.00004683,-0.00008336,0.00
 012603,-0.00002835,0.00003489,0.00000460,-0.00016772,0.00002967,-0.000
 27600,0.00001487,0.00001389,-0.00001304,-0.00000783,0.00000395,0.00000
 183,-0.00532097,0.00343485,-0.02450699,-0.00002271,0.00000909,-0.00001
 988,0.00000578,-0.00001038,0.00000325,0.00003867,0.00000847,0.00009832
 ,-0.00000102,0.00000045,-0.00000078,0.00000128,0.00000009,-0.00000004,
 0.00946915,-0.05472613,0.04441494,0.00000755,0.00000937,0.00000277,0.0
 0000326,-0.00000020,-0.00000311,-0.00000394,-0.00000837,0.00019634,-0.
 00000026,0.00000009,0.00000148,-0.00000256,0.00000314,-0.00000311,0.00
 000042,0.00000063,-0.00000086,0.00000155,-0.00000127,-0.00000073,0.003
 13086,-0.00224324,-0.00251308,-0.00088891,0.00068300,0.00015885,-0.000
 00226,0.00000667,0.00002280,-0.00000390,0.00000147,0.00000803,0.000000
 59,-0.00000375,0.00000160,0.00000107,0.00000065,-0.00000097,-0.0000007
 6,-0.00000039,0.00000016,0.00000087,0.00000043,-0.00000006,-0.00000030
 ,-0.00000027,-0.00000072,-0.00000039,-0.00000067,0.00000067,-0.0007450
 6,-0.00079868,-0.00451971,-0.01162463,0.05675148,0.00001164,-0.0000167
 0,0.00002385,0.00002577,-0.00000091,0.00001201,-0.00022899,0.00056658,
 0.00146299,0.00012233,-0.00005267,0.00010817,-0.00004891,0.00000888,-0
 .00002980,-0.00011946,0.00005932,0.00010150,0.00000344,0.00001041,-0.0
 0002198,-0.00001294,-0.00000039,-0.00001017,-0.00455140,0.00286537,-0.
 02025949,-0.00005359,0.00004565,-0.00001519,0.00006208,0.00001578,0.00
 003774,0.00008764,-0.00005197,0.00004887,-0.00000009,-0.00000185,-0.00
 000189,0.00000242,-0.00000102,-0.00000027,-0.05308317,0.04262476,-0.29
 600348,0.00000196,0.00000449,0.00000223,0.00001508,-0.00000271,0.00000
 588,-0.00017038,0.00009053,0.00023799,0.00000930,0.00000025,0.00000640
 ,-0.00000284,-0.00000073,-0.00001076,0.00000177,0.00000003,0.00000386,
 0.00000116,-0.00000067,0.00000022,0.00213876,-0.00289311,-0.00048899,-
 0.00004223,-0.00022218,0.00075277,-0.00000159,0.00000550,0.00002732,0.
 00001257,-0.00000669,-0.00000141,-0.00000140,-0.00000210,-0.00000063,-
 0.00000133,0.00000263,0.00000472,0.00000157,0.00000082,0.00000108,0.00
 000156,0.00000008,-0.00000023,-0.00000107,0.00000071,0.00000150,-0.000
 00084,0.00000045,-0.00000114,0.00017969,0.00042359,-0.00217640,0.05704
 745,-0.04360974,0.32189382,0.00002459,-0.00005746,0.00000533,0.0000572
 4,-0.00000706,-0.00001061,0.00212287,-0.00080889,-0.00083078,-0.000248
 12,-0.00023161,-0.00004540,-0.00010010,0.00004590,0.00001633,-0.000081
 37,0.00056024,0.00033349,0.00000765,0.00002148,-0.00001867,-0.00003270
 ,0.00000533,-0.00000255,0.00339888,0.01883101,-0.00429469,-0.00004551,
 -0.00008371,0.00000169,0.00003228,0.00000194,0.00000916,0.00005942,-0.
 00009263,-0.00002054,0.00000173,-0.00000053,0.00000298,0.00000388,0.00
 000054,0.00000076,-0.06260631,-0.06384518,0.01514757,0.00001516,-0.000
 00740,-0.00001371,0.00001137,-0.00000270,-0.00000194,0.00004316,-0.000
 02902,-0.00006365,-0.00000129,-0.00000106,0.00000240,0.00000217,0.0000
 0643,0.00000064,0.00000228,-0.00000008,0.00000071,0.00000357,-0.000003
 23,0.00000006,0.00039318,-0.00086485,-0.00046823,-0.00147529,0.0022630
 5,0.00214187,0.00000956,-0.00000287,-0.00000413,-0.00001952,0.00002814
 ,0.00001863,-0.00000102,-0.00000317,0.00000112,0.00000047,0.00000017,-
 0.00000216,0.00000111,-0.00000143,-0.00000172,0.00000371,0.00000024,-0
 .00000030,-0.00000167,0.00000039,-0.00000084,-0.00000239,-0.00000050,-
 0.00000023,-0.00579243,-0.02937692,0.00796463,0.00084618,0.00742652,-0
 .00141311,0.06337494,0.00003525,0.00004321,-0.00000291,0.00003629,0.00
 002654,-0.00001095,-0.00037780,0.00191671,0.00058245,0.00038314,0.0001
 9421,-0.00001609,-0.00004960,-0.00006025,0.00000258,-0.00015060,-0.000
 28156,-0.00004991,-0.00003526,-0.00001149,0.00000693,-0.00001521,-0.00
 000448,-0.00000544,-0.00628139,-0.02234433,0.00497414,-0.00006239,0.00
 019777,0.00009014,0.00007212,0.00002766,0.00001854,0.00003350,-0.00000
 472,-0.00001500,0.00000330,-0.00000104,-0.00000395,0.00000211,-0.00000
 262,0.00000008,-0.06146851,-0.28329703,0.05873145,-0.00002261,-0.00000
 612,0.00000287,0.00000891,-0.00000032,0.00000312,-0.00002983,-0.000007
 26,0.00000012,0.00000762,0.00000129,0.00000232,0.00000112,-0.00000538,
 -0.00000586,0.00000153,-0.00000127,0.00000118,-0.00000052,0.00000084,0
 .00000150,-0.00007241,0.00083608,-0.00031360,0.00246484,-0.00084557,-0
 .00311411,-0.00001360,-0.00001003,-0.00001201,0.00004283,-0.00003019,-
 0.00003268,-0.00000315,0.00000447,-0.00000337,-0.00000622,0.00000235,0
 .00000766,0.00000652,0.00000012,0.00000215,0.00000118,0.00000114,-0.00
 000101,-0.00000007,-0.00000066,-0.00000045,0.00000049,0.00000295,0.000
 00047,0.00020091,-0.00157507,0.00031970,-0.00097533,-0.00370056,0.0001
 4438,0.06624638,0.30890974,0.00000761,-0.00001269,-0.00000049,0.000009
 77,-0.00000205,-0.00000845,-0.00121996,0.00155948,0.00043458,0.0003375
 5,-0.00004626,-0.00007012,-0.00001642,0.00000473,0.00001198,-0.0003326
 1,-0.00023862,-0.00000724,-0.00000123,0.00000574,-0.00000488,-0.000005
 88,0.00000211,0.00000322,-0.00581814,-0.02177071,0.00463909,0.00000940
 ,0.00012287,0.00008770,-0.00000916,-0.00000644,-0.00000753,-0.00000894
 ,0.00003175,-0.00000659,0.00000096,-0.00000040,-0.00000135,0.00000025,
 0.00000104,0.00000046,0.01589091,0.06048275,-0.06237121,-0.00001010,-0
 .00000504,-0.00000668,-0.00000173,0.00000266,-0.00000265,-0.00000472,-
 0.00001725,-0.00005436,0.00000196,0.00000030,0.00000103,-0.00000196,0.
 00000093,-0.00000377,-0.00000005,0.00000062,-0.00000156,0.00000045,-0.
 00000109,-0.00000037,-0.00092561,0.00017414,0.00070513,0.00283844,-0.0
 0239669,-0.00163642,-0.00001220,-0.00000749,-0.00001000,0.00002350,-0.
 00002461,-0.00002732,-0.00000087,-0.00000080,-0.00000018,-0.00000183,0
 .00000114,0.00000171,0.00000155,0.00000003,0.00000078,0.00000062,0.000
 00028,-0.00000013,-0.00000002,-0.00000067,-0.00000114,-0.00000022,-0.0
 0000047,0.00000081,-0.00104991,-0.00540085,-0.00032472,0.00874398,0.02
 884040,-0.00571300,-0.01845482,-0.06130757,0.06437328,-0.00001810,0.00
 013954,0.00004588,0.00006198,0.00004743,-0.00002564,0.00002060,-0.0001
 4245,-0.00001930,0.00073139,-0.00088736,0.00004592,-0.00004783,-0.0001
 0977,0.00000259,0.00061213,-0.00031545,0.00003713,0.00016592,-0.000289
 77,-0.00009149,-0.00003880,-0.00001260,-0.00000953,-0.00004694,-0.0000
 8508,0.00003481,-0.00023676,-0.00257986,-0.00299619,0.00002111,0.00004
 461,0.00000631,0.00003435,0.00013168,-0.00000873,0.00005468,-0.0000204
 4,-0.00004726,0.00000159,0.00000140,0.00000307,0.00001273,0.00001652,-
 0.00000978,-0.09542112,0.07591531,0.07314319,0.00000313,0.00000777,0.0
 0000343,-0.00002517,-0.00000956,-0.00000843,-0.00003556,0.00006300,0.0
 0001844,-0.00007894,0.00005892,0.00000646,0.00000293,-0.00000078,0.000
 00170,-0.00000159,-0.00000085,0.00000364,0.00000531,0.00001124,-0.0000
 0718,0.00002458,-0.00001405,-0.00001587,-0.00000252,0.00033804,-0.0001
 8493,-0.00009961,0.00035455,-0.00027147,0.00007174,0.00006542,-0.00009
 015,-0.00084236,-0.00038809,-0.00008605,0.00008006,0.00006836,0.000078
 51,0.00000409,0.00000032,-0.00000056,-0.00000143,-0.00000058,-0.000001
 40,-0.00000102,0.00000315,-0.00000087,-0.00000214,-0.00000308,0.000000
 31,0.00000007,-0.00000293,-0.00000014,-0.00000183,0.00001220,0.0000049
 9,0.10026039,-0.00011054,0.00031623,0.00003682,-0.00011599,0.00006934,
 0.00001003,0.00053529,-0.00111898,-0.00028315,-0.00114698,-0.00915523,
 0.00285805,0.00035793,-0.00024066,-0.00002369,0.00124262,0.00137713,-0
 .00101489,0.00010174,-0.00021567,0.00009992,0.00004635,-0.00003321,0.0
 0000299,-0.00042028,0.00000593,-0.00008260,0.01391422,-0.01314114,-0.0
 2229350,-0.00024779,0.00000180,-0.00003657,-0.00002508,-0.00006100,0.0
 0001212,0.00002392,0.00001620,-0.00043726,-0.00001213,0.00000532,-0.00
 000333,0.00003293,0.00000914,0.00002014,0.07443835,-0.16076528,-0.1062
 9440,-0.00004612,0.00001918,0.00000813,-0.00003539,-0.00017502,0.00017
 296,-0.00000527,0.00009707,0.00002691,0.00002941,-0.00000641,0.0000327
 9,-0.00000556,0.00000175,0.00000077,-0.00001451,0.00000887,-0.00000025
 ,0.00003086,0.00000115,0.00003096,0.00001269,0.00003053,0.00002214,0.0
 0053469,0.00057827,0.00063906,-0.00081901,0.00045082,-0.00023828,-0.00
 006531,-0.00003202,0.00005299,-0.00034544,-0.00001225,0.00010104,0.000
 07930,0.00002963,0.00016677,-0.00000429,-0.00000318,0.00000159,0.00000
 170,-0.00000375,0.00000209,0.00000317,0.00000447,0.00000080,0.00002808
 ,-0.00000869,-0.00001000,-0.00000825,-0.00000311,-0.00000504,-0.000007
 55,-0.00000355,-0.00000416,-0.08260353,0.17491268,-0.00017961,0.000229
 88,0.00007749,-0.00003759,0.00004778,-0.00001162,-0.00013013,0.0003470
 1,0.00003254,0.00016329,0.00318987,-0.00009959,0.00013434,-0.00009757,
 -0.00000293,-0.00004946,0.00052550,0.00085422,0.00039443,-0.00039818,-
 0.00008610,0.00001771,-0.00002292,-0.00000173,0.00008229,0.00005740,0.
 00000132,-0.00659721,0.00704143,0.00762041,0.00002096,-0.00001601,-0.0
 0001997,-0.00009877,0.00004653,-0.00005157,0.00028322,0.00011493,-0.00
 028253,-0.00000465,0.00000276,0.00000212,-0.00001370,-0.00001134,-0.00
 000425,0.07306831,-0.10871210,-0.15011038,-0.00001206,0.00001019,0.000
 00485,-0.00004097,-0.00009173,-0.00001425,-0.00004478,0.00011915,0.000
 03494,-0.00006816,0.00014669,-0.00000432,-0.00000142,0.00000013,-0.000
 00118,-0.00000615,0.00000241,0.00000517,-0.00001335,-0.00000716,0.0000
 0223,-0.00002458,-0.00001597,-0.00000524,-0.00032920,-0.00075480,0.000
 09716,0.00013976,-0.00064763,0.00033051,-0.00009016,-0.00005303,-0.000
 29851,-0.00029647,-0.00026814,0.00045590,0.00012734,0.00012915,0.00019
 576,-0.00000212,-0.00000142,-0.00000020,0.00000147,-0.00000159,-0.0000
 0063,0.00000112,0.00000337,-0.00000018,-0.00000187,0.00000290,0.000002
 97,-0.00000139,0.00000605,0.00000201,0.00000167,-0.00000993,-0.0000006
 7,-0.07976903,0.11783691,0.15883160,0.00006496,0.00045840,-0.00000637,
 0.00004077,0.00012532,-0.00003716,0.00001157,-0.00004122,0.00003176,-0
 .00037414,0.00015144,-0.00020513,0.00014322,-0.00034254,-0.00002361,0.
 00018413,0.00027314,0.00013707,-0.00052460,-0.00042431,0.00003153,-0.0
 0003614,-0.00002579,-0.00001194,-0.00003935,0.00002949,-0.00002758,0.0
 0176431,0.00031286,0.00417605,-0.00008237,0.00006328,-0.00001190,-0.00
 002792,0.00005444,-0.00001208,-0.00106381,-0.00007657,-0.00006181,-0.0
 0000262,0.00000400,0.00000328,-0.00000387,-0.00000306,-0.00000566,-0.0
 9834332,0.00728750,-0.10642418,-0.00001640,0.00002230,0.00001314,-0.00
 003894,-0.00008990,0.00003490,0.00010482,0.00008359,0.00004394,-0.0001
 1460,-0.00062672,-0.00017928,0.00000146,-0.00000146,0.00000323,-0.0000
 0961,0.00000147,0.00000673,-0.00000305,-0.00002372,0.00002219,-0.00002
 148,0.00000045,-0.00004330,0.00093076,-0.00110156,0.00036103,0.0000705
 9,0.00050377,0.00052146,-0.00084195,0.00034467,-0.00029653,-0.00018446
 ,0.00002947,0.00048122,0.00012908,-0.00000334,-0.00000336,0.00000353,-
 0.00000066,-0.00000072,-0.00000054,-0.00000107,-0.00000134,0.00000046,
 0.00000622,-0.00000183,0.00000261,0.00000060,-0.00000093,-0.00000186,0
 .00001234,0.00001019,0.00000092,-0.00000469,0.00000446,0.00574837,-0.0
 0206956,0.01355998,0.10438924,0.00034721,0.00014195,-0.00025637,0.0000
 6571,0.00005358,-0.00004800,-0.00005863,0.00009273,-0.00023050,-0.0007
 5568,0.00316764,-0.00056005,-0.00003266,-0.00022712,0.00005370,-0.0000
 2909,-0.00043650,0.00037142,-0.00095194,0.00020151,0.00041536,-0.00003
 857,-0.00000052,-0.00000475,0.00003408,-0.00004497,0.00007805,0.015297
 24,-0.00400855,0.03155261,-0.00001672,0.00001798,-0.00004791,-0.000000
 65,0.00009222,-0.00004593,0.00005665,0.00015902,-0.00013712,0.00000230
 ,0.00000139,0.00000415,-0.00000347,0.00000429,-0.00001079,0.00699510,-
 0.04638271,0.01420915,-0.00001249,0.00000397,0.00000161,-0.00006339,0.
 00021461,-0.00032409,0.00019109,-0.00005373,-0.00001299,-0.00033233,-0
 .00093300,-0.00019598,0.00000114,-0.00000190,-0.00000034,-0.00000409,0
 .00000016,0.00000418,-0.00001453,0.00001925,-0.00002663,-0.00000208,0.
 00000349,0.00000794,-0.00062751,-0.00584401,0.00158387,-0.00009689,0.0
 0126928,-0.00057532,0.00038734,-0.00001198,0.00026804,-0.00002919,0.00
 002888,-0.00014172,-0.00000097,-0.00015422,-0.00003336,0.00000396,0.00
 000174,-0.00000122,-0.00000007,0.00000066,-0.00000263,-0.00000017,0.00
 000235,-0.00000115,-0.00000306,-0.00000072,0.00000153,0.00000305,-0.00
 000521,-0.00000673,0.00000016,0.00000220,0.00000141,-0.01060346,0.0015
 7581,-0.01817818,-0.00719668,0.05168235,-0.00012710,-0.00067628,0.0001
 6872,-0.00000864,-0.00014037,0.00007369,-0.00004717,0.00019985,0.00013
 208,0.00024474,-0.00003259,0.00152626,-0.00021202,0.00043612,-0.000030
 12,-0.00020674,-0.00051335,0.00011923,-0.00006705,0.00043525,-0.000083
 39,0.00001233,0.00003300,0.00000037,0.00004555,0.00000004,-0.00002864,
 -0.00476363,0.00055064,-0.01276497,0.00008736,0.00001489,0.00005039,0.
 00010942,0.00002911,0.00004316,-0.00069283,0.00005916,-0.00015177,0.00
 000680,-0.00000554,-0.00000613,0.00000540,0.00000160,0.00000066,-0.105
 08849,0.01660928,-0.25973541,0.00003652,-0.00001904,-0.00000468,0.0000
 5297,-0.00020740,-0.00000104,-0.00012949,-0.00005553,-0.00002171,0.000
 08600,0.00008144,0.00012516,0.00000164,0.00000348,0.00000422,0.0000130
 6,-0.00000304,-0.00001369,0.00000120,-0.00001551,0.00001627,0.00000635
 ,0.00000194,-0.00001422,0.00072441,0.00226127,0.00062745,0.00013206,-0
 .00003568,0.00012129,-0.00008554,-0.00010092,0.00045559,0.00048128,0.0
 0014167,-0.00050616,-0.00027706,-0.00024700,-0.00011488,-0.00000109,0.
 00000092,0.00000087,-0.00000159,0.00000096,0.00000473,-0.00000215,-0.0
 0000767,0.00000171,-0.00000460,0.00000108,-0.00000038,-0.00000058,0.00
 000312,0.00000830,-0.00000074,0.00000535,0.00000146,-0.00849673,0.0024
 5424,-0.01543283,0.11569145,-0.02076292,0.28129217,-0.00011564,-0.0003
 2871,0.00000261,-0.00010138,-0.00010207,0.00003824,0.00020723,-0.00015
 713,-0.00009005,0.00083378,-0.00044979,-0.00058625,-0.00000216,0.00029
 611,0.00000499,0.00004033,0.00019625,-0.00006326,0.00015702,0.00020728
 ,-0.00001440,0.00006642,0.00002000,0.00001501,-0.00017124,-0.00007412,
 0.00000186,-0.00249026,0.00012473,0.00057982,0.00005708,0.00002043,0.0
 0001223,0.00005801,0.00003927,0.00002755,-0.00017332,0.00003662,0.0002
 2352,-0.00000104,-0.00000261,-0.00000231,0.00002534,0.00001433,-0.0000
 0319,-0.29814079,-0.06125830,0.02394627,0.00000010,-0.00001798,-0.0000
 1204,-0.00000199,0.00002864,-0.00000533,-0.00006919,-0.00004952,-0.000
 03020,0.00001933,0.00012858,0.00009880,-0.00000367,0.00000134,-0.00000
 477,0.00000611,0.00000062,-0.00000619,0.00001096,0.00000918,0.00000235
 ,0.00003647,0.00000140,-0.00000293,0.00063495,-0.00045709,0.00034482,0
 .00136073,-0.00000011,0.00050956,0.00008021,-0.00007920,0.00012738,0.0
 0012904,0.00000115,-0.00027737,-0.00011668,-0.00008663,-0.00010909,-0.
 00000741,-0.00000037,0.00000086,0.00000276,0.00000076,0.00000157,0.000
 00112,-0.00000652,0.00000155,0.00001146,-0.00000679,-0.00000192,-0.000
 00572,-0.00000737,-0.00000288,-0.00000676,0.00000895,-0.00000003,-0.01
 101543,-0.00330469,-0.00018310,-0.01185977,-0.00251070,0.00247468,0.32
 054403,-0.00008655,0.00012485,-0.00010978,-0.00005778,0.00000959,-0.00
 001789,0.00020666,0.00008824,-0.00003646,0.00058327,0.00311789,-0.0000
 9110,0.00014633,0.00001087,0.00005735,-0.00019335,-0.00010516,0.000215
 32,0.00011636,-0.00023476,0.00011162,0.00003708,-0.00000837,0.00000810
 ,-0.00016850,-0.00018753,0.00003490,-0.03388196,-0.00955307,0.00353061
 ,0.00024394,-0.00019306,-0.00008663,-0.00016592,0.00001169,-0.00018142
 ,0.00024369,0.00002995,-0.00021087,-0.00000504,0.00000345,0.00000114,0
 .00004889,0.00004139,-0.00001665,-0.05897003,-0.06033094,0.00540346,-0
 .00002299,0.00000246,-0.00000932,-0.00003666,0.00011491,-0.00007289,-0
 .00004018,0.00006038,-0.00000152,0.00000325,0.00000734,0.00010544,-0.0
 0000383,0.00000011,-0.00000390,-0.00000460,0.00000182,0.00000171,0.000
 00733,0.00000998,0.00000369,0.00006456,-0.00001079,-0.00006609,0.00055
 752,0.00128516,-0.00029877,0.00054352,-0.00543575,0.00215077,-0.000068
 28,0.00002943,-0.00012889,0.00000358,-0.00015399,0.00024683,0.00008645
 ,0.00007869,0.00010759,-0.00000349,-0.00000153,0.00000019,0.00000220,-
 0.00000039,-0.00000082,0.00000143,0.00000012,-0.00000003,0.00000466,-0
 .00000972,-0.00000260,-0.00000390,-0.00000581,0.00000502,-0.00001009,0
 .00002623,0.00001149,0.02079027,0.00546785,-0.00057237,0.00226808,-0.0
 0063189,-0.00050157,0.06776409,0.06634038,-0.00009088,-0.00033031,0.00
 013718,0.00004358,-0.00005310,0.00002015,-0.00006928,0.00007888,-0.000
 00944,-0.00088824,-0.00072126,0.00019399,-0.00017852,0.00017802,-0.000
 00551,-0.00004434,-0.00035133,-0.00011187,0.00022099,0.00020537,-0.000
 03938,-0.00001986,0.00001386,-0.00000384,0.00006260,-0.00005875,0.0000
 6204,0.01411720,0.00297133,-0.00212925,-0.00002485,0.00003848,0.000050
 86,0.00009269,0.00005312,0.00005205,-0.00030211,0.00010271,-0.00019572
 ,0.00000579,-0.00000358,-0.00000096,-0.00000327,0.00001075,-0.00001032
 ,0.02316905,0.00618305,-0.04948983,0.00002542,-0.00000534,-0.00000261,
 0.00002846,0.00006984,-0.00002804,-0.00005863,0.00001312,0.00000623,-0
 .00000431,0.00021904,0.00005052,0.00000315,0.00000110,0.00000218,0.000
 00662,-0.00000375,-0.00000424,0.00000180,0.00003752,-0.00003308,0.0000
 2531,-0.00000056,0.00003170,0.00043242,-0.00053561,-0.00004450,-0.0004
 1691,0.00252879,0.00001552,0.00007872,-0.00016656,0.00019565,-0.000003
 35,0.00003335,-0.00011479,-0.00010894,-0.00010758,0.00002265,0.0000019
 4,0.00000134,0.,-0.00000187,-0.00000017,0.00000108,-0.00000172,-0.0000
 0215,0.00000078,-0.00000658,0.00000029,0.00000474,0.00000103,-0.000010
 59,-0.00000841,-0.00000020,0.00000773,-0.00000039,0.01870434,0.0061369
 2,-0.00212252,-0.02777890,-0.00694832,0.00413627,-0.02701836,-0.009585
 65,0.04937108\\0.00000353,-0.00001066,0.00000076,-0.00000474,-0.000003
 73,-0.00000096,0.00000157,-0.00000108,0.00000277,0.00000414,-0.0000093
 7,0.00000108,-0.00000066,0.00001432,0.00000518,-0.00000085,0.00001023,
 -0.00000465,-0.00000143,0.00000691,-0.00000585,0.00000370,-0.00000207,
 -0.00000324,-0.00000452,-0.00000251,0.00000418,-0.00000214,0.00001275,
 0.00000543,-0.00000728,0.00000428,-0.00000845,0.00000168,-0.00000137,0
 .00000170,0.00000175,-0.00000836,0.00000231,0.00000192,0.00000205,0.00
 000271,-0.00000201,0.00000169,-0.00000218,-0.00000103,-0.00000646,-0.0
 0000048,0.00000186,-0.00000160,0.00000180,0.00000163,-0.00000275,-0.00
 000257,0.00000002,-0.00000038,0.00000083,-0.00000089,-0.00000396,0.000
 00263,-0.00000150,-0.00000194,0.00000052,0.00000133,-0.00000022,0.0000
 0152,0.00000156,-0.00000098,-0.00000053,-0.00000119,0.00000024,-0.0000
 0174,0.00000080,0.00000046,-0.00000147,0.00000045,0.00000153,-0.000001
 21,0.00000121,0.00000171,-0.00000141,0.00000192,0.00000159,-0.00000023
 ,0.00000014,-0.00000415,-0.00000060,-0.00000303,-0.00000061,-0.0000019
 4,-0.00000047,0.00000063,-0.00000148,0.00000027,0.00000108,-0.00000089
 ,0.00000301,-0.00000036,0.00000176,0.00000036,0.00000049,0.00000140,-0
 .00000020,0.00000112,0.00000093,-0.00000022,0.00000200,0.00000123,-0.0
 0000048,0.00000314,0.00000088,-0.00000019,-0.00000364,0.00000025\\\@


 IT IS UNWORTHY OF EXCELLENT MEN TO LOSE HOURS LIKE SLAVES IN THE LABOR
 OF CALCULATION WHICH COULD BE SAFELY RELEGATED TO ANYONE ELSE
 IF A MACHINE WERE USED.
    -- G.W. VON LEIBNIZ
 Job cpu time:       0 days 12 hours 54 minutes 38.5 seconds.
 Elapsed time:       0 days  0 hours 48 minutes 36.9 seconds.
 File lengths (MBytes):  RWF=    822 Int=      0 D2E=      0 Chk=     25 Scr=      1
 Normal termination of Gaussian 16 at Sat Sep 27 20:07:51 2025.
