 Entering Gaussian System, Link 0=g16
 Input=TOMD0163.gjf
 Output=TOMD0163.log
 Initial command:
 /usr/local/g16/l1.exe "/dados_01/scratch/Gau-2298217.inp" -scrdir="/dados_01/scratch/"
 Entering Link 1 = /usr/local/g16/l1.exe PID=   2298218.
  
 Copyright (c) 1988-2017, Gaussian, Inc.  All Rights Reserved.
  
 This is part of the Gaussian(R) 16 program.  It is based on
 the Gaussian(R) 09 system (copyright 2009, Gaussian, Inc.),
 the Gaussian(R) 03 system (copyright 2003, Gaussian, Inc.),
 the Gaussian(R) 98 system (copyright 1998, Gaussian, Inc.),
 the Gaussian(R) 94 system (copyright 1995, Gaussian, Inc.),
 the Gaussian 92(TM) system (copyright 1992, Gaussian, Inc.),
 the Gaussian 90(TM) system (copyright 1990, Gaussian, Inc.),
 the Gaussian 88(TM) system (copyright 1988, Gaussian, Inc.),
 the Gaussian 86(TM) system (copyright 1986, Carnegie Mellon
 University), and the Gaussian 82(TM) system (copyright 1983,
 Carnegie Mellon University). Gaussian is a federally registered
 trademark of Gaussian, Inc.
  
 This software contains proprietary and confidential information,
 including trade secrets, belonging to Gaussian, Inc.
  
 This software is provided under written license and may be
 used, copied, transmitted, or stored only in accord with that
 written license.
  
 The following legend is applicable only to US Government
 contracts under FAR:
  
                    RESTRICTED RIGHTS LEGEND
  
 Use, reproduction and disclosure by the US Government is
 subject to restrictions as set forth in subparagraphs (a)
 and (c) of the Commercial Computer Software - Restricted
 Rights clause in FAR 52.227-19.
  
 Gaussian, Inc.
 340 Quinnipiac St., Bldg. 40, Wallingford CT 06492
  
  
 ---------------------------------------------------------------
 Warning -- This program may not be used in any manner that
 competes with the business of Gaussian, Inc. or will provide
 assistance to any competitor of Gaussian, Inc.  The licensee
 of this program is prohibited from giving any competitor of
 Gaussian, Inc. access to this program.  By using this program,
 the user acknowledges that Gaussian, Inc. is engaged in the
 business of creating and licensing software in the field of
 computational chemistry and represents and warrants to the
 licensee that it is not a competitor of Gaussian, Inc. and that
 it will not use this program in any manner prohibited above.
 ---------------------------------------------------------------
  

 Cite this work as:
 Gaussian 16, Revision B.01,
 M. J. Frisch, G. W. Trucks, H. B. Schlegel, G. E. Scuseria, 
 M. A. Robb, J. R. Cheeseman, G. Scalmani, V. Barone, 
 G. A. Petersson, H. Nakatsuji, X. Li, M. Caricato, A. V. Marenich, 
 J. Bloino, B. G. Janesko, R. Gomperts, B. Mennucci, H. P. Hratchian, 
 J. V. Ortiz, A. F. Izmaylov, J. L. Sonnenberg, D. Williams-Young, 
 F. Ding, F. Lipparini, F. Egidi, J. Goings, B. Peng, A. Petrone, 
 T. Henderson, D. Ranasinghe, V. G. Zakrzewski, J. Gao, N. Rega, 
 G. Zheng, W. Liang, M. Hada, M. Ehara, K. Toyota, R. Fukuda, 
 J. Hasegawa, M. Ishida, T. Nakajima, Y. Honda, O. Kitao, H. Nakai, 
 T. Vreven, K. Throssell, J. A. Montgomery, Jr., J. E. Peralta, 
 F. Ogliaro, M. J. Bearpark, J. J. Heyd, E. N. Brothers, K. N. Kudin, 
 V. N. Staroverov, T. A. Keith, R. Kobayashi, J. Normand, 
 K. Raghavachari, A. P. Rendell, J. C. Burant, S. S. Iyengar, 
 J. Tomasi, M. Cossi, J. M. Millam, M. Klene, C. Adamo, R. Cammi, 
 J. W. Ochterski, R. L. Martin, K. Morokuma, O. Farkas, 
 J. B. Foresman, and D. J. Fox, Gaussian, Inc., Wallingford CT, 2016.
 
 ******************************************
 Gaussian 16:  ES64L-G16RevB.01 20-Dec-2017
                27-Sep-2025 
 ******************************************
 %nprocs=16
 Will use up to   16 processors via shared memory.
 %mem=40GB
 %chk=TOMD0163.chk
 ----------------------------------------------------------------------
 # opt freq=noraman M08HX/6-311++G** scf=xqc Empiricaldispersion=pfd In
 t(Grid=ultraFine)
 ----------------------------------------------------------------------
 1/18=20,19=15,26=4,38=1/1,3;
 2/9=110,12=2,17=6,18=5,40=1/2;
 3/5=4,6=6,7=1111,11=2,25=1,30=1,71=1,74=-74,75=-5,124=11/1,2,3;
 4//1;
 5/5=2,8=3,13=1,38=5/2,8;
 6/7=2,8=2,9=2,10=2,28=1/1;
 7//1,2,3,16;
 1/18=20,19=15,26=4/3(2);
 2/9=110/2;
 99//99;
 2/9=110/2;
 3/5=4,6=6,7=1111,11=2,25=1,30=1,71=1,74=-74,75=-5,124=11/1,2,3;
 4/5=5,16=3,69=1/1;
 5/5=2,8=3,13=1,38=5/2,8;
 7//1,2,3,16;
 1/18=20,19=15,26=4/3(-5);
 2/9=110/2;
 6/7=2,8=2,9=2,10=2,19=2,28=1/1;
 99/9=1/99;
 --------
 TOMD0163
 --------
 Symbolic Z-matrix:
 Charge =  0 Multiplicity = 1
 O                    -1.3758   -1.642    -0.362 
 O                     1.376    -1.6422    0.3619 
 O                    -1.0118    1.8545    0.6667 
 O                     1.012     1.8544   -0.667 
 O                    -3.5063   -0.5983   -0.3334 
 O                     3.5063   -0.5985    0.3335 
 C                    -0.7291   -0.5124    0.2461 
 C                     0.7291   -0.5122   -0.2456 
 C                    -1.5141    0.7636   -0.0937 
 C                     1.5141    0.7638    0.0942 
 C                    -2.9838    0.574     0.2822 
 C                     2.9839    0.5741   -0.2815 
 C                    -0.0003    2.6005   -0.0006 
 C                    -2.7392   -1.7397    0.0413 
 C                     2.7392   -1.7395   -0.0422 
 H                    -0.7224   -0.6707    1.334 
 H                     0.7222   -0.6702   -1.3336 
 H                    -1.4677    0.9603   -1.1738 
 H                     1.4674    0.9609    1.1743 
 H                    -3.1176    0.5135    1.3699 
 H                    -3.5728    1.4342   -0.054 
 H                     3.1178    0.5143   -1.3692 
 H                     3.573     1.4342    0.0553 
 H                    -0.478     3.2507   -0.7411 
 H                     0.4771    3.252     0.739 
 H                    -2.8087   -1.9127    1.1224 
 H                    -3.1718   -2.6092   -0.462 
 H                     2.8082   -1.9115   -1.1235 
 H                     3.1719   -2.6095    0.46 
 

 GradGradGradGradGradGradGradGradGradGradGradGradGradGradGradGradGradGrad
 Berny optimization.
 Initialization pass.
                           ----------------------------
                           !    Initial Parameters    !
                           ! (Angstroms and Degrees)  !
 --------------------------                            --------------------------
 ! Name  Definition              Value          Derivative Info.                !
 --------------------------------------------------------------------------------
 ! R1    R(1,7)                  1.4367         estimate D2E/DX2                !
 ! R2    R(1,14)                 1.4252         estimate D2E/DX2                !
 ! R3    R(2,8)                  1.4368         estimate D2E/DX2                !
 ! R4    R(2,15)                 1.4252         estimate D2E/DX2                !
 ! R5    R(3,9)                  1.4215         estimate D2E/DX2                !
 ! R6    R(3,13)                 1.423          estimate D2E/DX2                !
 ! R7    R(4,10)                 1.4216         estimate D2E/DX2                !
 ! R8    R(4,13)                 1.4232         estimate D2E/DX2                !
 ! R9    R(5,11)                 1.4235         estimate D2E/DX2                !
 ! R10   R(5,14)                 1.4254         estimate D2E/DX2                !
 ! R11   R(6,12)                 1.4234         estimate D2E/DX2                !
 ! R12   R(6,15)                 1.4253         estimate D2E/DX2                !
 ! R13   R(7,8)                  1.5389         estimate D2E/DX2                !
 ! R14   R(7,9)                  1.5362         estimate D2E/DX2                !
 ! R15   R(7,16)                 1.0994         estimate D2E/DX2                !
 ! R16   R(8,10)                 1.5362         estimate D2E/DX2                !
 ! R17   R(8,17)                 1.0994         estimate D2E/DX2                !
 ! R18   R(9,11)                 1.5288         estimate D2E/DX2                !
 ! R19   R(9,18)                 1.0988         estimate D2E/DX2                !
 ! R20   R(10,12)                1.5289         estimate D2E/DX2                !
 ! R21   R(10,19)                1.0989         estimate D2E/DX2                !
 ! R22   R(11,20)                1.0976         estimate D2E/DX2                !
 ! R23   R(11,21)                1.0954         estimate D2E/DX2                !
 ! R24   R(12,22)                1.0975         estimate D2E/DX2                !
 ! R25   R(12,23)                1.0956         estimate D2E/DX2                !
 ! R26   R(13,24)                1.0951         estimate D2E/DX2                !
 ! R27   R(13,25)                1.0952         estimate D2E/DX2                !
 ! R28   R(14,26)                1.0971         estimate D2E/DX2                !
 ! R29   R(14,27)                1.0938         estimate D2E/DX2                !
 ! R30   R(15,28)                1.0971         estimate D2E/DX2                !
 ! R31   R(15,29)                1.0938         estimate D2E/DX2                !
 ! A1    A(7,1,14)             111.3926         estimate D2E/DX2                !
 ! A2    A(8,2,15)             111.3747         estimate D2E/DX2                !
 ! A3    A(9,3,13)             113.7443         estimate D2E/DX2                !
 ! A4    A(10,4,13)            113.7458         estimate D2E/DX2                !
 ! A5    A(11,5,14)            110.3806         estimate D2E/DX2                !
 ! A6    A(12,6,15)            110.3689         estimate D2E/DX2                !
 ! A7    A(1,7,8)              106.9419         estimate D2E/DX2                !
 ! A8    A(1,7,9)              109.2351         estimate D2E/DX2                !
 ! A9    A(1,7,16)             107.9617         estimate D2E/DX2                !
 ! A10   A(8,7,9)              114.4207         estimate D2E/DX2                !
 ! A11   A(8,7,16)             108.0851         estimate D2E/DX2                !
 ! A12   A(9,7,16)             109.9747         estimate D2E/DX2                !
 ! A13   A(2,8,7)              106.9437         estimate D2E/DX2                !
 ! A14   A(2,8,10)             109.2483         estimate D2E/DX2                !
 ! A15   A(2,8,17)             107.9518         estimate D2E/DX2                !
 ! A16   A(7,8,10)             114.4343         estimate D2E/DX2                !
 ! A17   A(7,8,17)             108.0732         estimate D2E/DX2                !
 ! A18   A(10,8,17)            109.9667         estimate D2E/DX2                !
 ! A19   A(3,9,7)              109.7893         estimate D2E/DX2                !
 ! A20   A(3,9,11)             107.659          estimate D2E/DX2                !
 ! A21   A(3,9,18)             111.9326         estimate D2E/DX2                !
 ! A22   A(7,9,11)             109.5025         estimate D2E/DX2                !
 ! A23   A(7,9,18)             110.1533         estimate D2E/DX2                !
 ! A24   A(11,9,18)            107.7267         estimate D2E/DX2                !
 ! A25   A(4,10,8)             109.7736         estimate D2E/DX2                !
 ! A26   A(4,10,12)            107.6472         estimate D2E/DX2                !
 ! A27   A(4,10,19)            111.9424         estimate D2E/DX2                !
 ! A28   A(8,10,12)            109.5022         estimate D2E/DX2                !
 ! A29   A(8,10,19)            110.1617         estimate D2E/DX2                !
 ! A30   A(12,10,19)           107.7362         estimate D2E/DX2                !
 ! A31   A(5,11,9)             110.406          estimate D2E/DX2                !
 ! A32   A(5,11,20)            109.7815         estimate D2E/DX2                !
 ! A33   A(5,11,21)            108.4587         estimate D2E/DX2                !
 ! A34   A(9,11,20)            111.5735         estimate D2E/DX2                !
 ! A35   A(9,11,21)            110.1244         estimate D2E/DX2                !
 ! A36   A(20,11,21)           106.3735         estimate D2E/DX2                !
 ! A37   A(6,12,10)            110.418          estimate D2E/DX2                !
 ! A38   A(6,12,22)            109.7871         estimate D2E/DX2                !
 ! A39   A(6,12,23)            108.4558         estimate D2E/DX2                !
 ! A40   A(10,12,22)           111.5665         estimate D2E/DX2                !
 ! A41   A(10,12,23)           110.1198         estimate D2E/DX2                !
 ! A42   A(22,12,23)           106.3701         estimate D2E/DX2                !
 ! A43   A(3,13,4)             116.7655         estimate D2E/DX2                !
 ! A44   A(3,13,24)            108.5587         estimate D2E/DX2                !
 ! A45   A(3,13,25)            107.7604         estimate D2E/DX2                !
 ! A46   A(4,13,24)            107.7525         estimate D2E/DX2                !
 ! A47   A(4,13,25)            108.5434         estimate D2E/DX2                !
 ! A48   A(24,13,25)           107.0735         estimate D2E/DX2                !
 ! A49   A(1,14,5)             112.6793         estimate D2E/DX2                !
 ! A50   A(1,14,26)            110.5049         estimate D2E/DX2                !
 ! A51   A(1,14,27)            107.616          estimate D2E/DX2                !
 ! A52   A(5,14,26)            110.5633         estimate D2E/DX2                !
 ! A53   A(5,14,27)            107.6226         estimate D2E/DX2                !
 ! A54   A(26,14,27)           107.6392         estimate D2E/DX2                !
 ! A55   A(2,15,6)             112.6691         estimate D2E/DX2                !
 ! A56   A(2,15,28)            110.5079         estimate D2E/DX2                !
 ! A57   A(2,15,29)            107.6091         estimate D2E/DX2                !
 ! A58   A(6,15,28)            110.5769         estimate D2E/DX2                !
 ! A59   A(6,15,29)            107.6266         estimate D2E/DX2                !
 ! A60   A(28,15,29)           107.6354         estimate D2E/DX2                !
 ! D1    D(14,1,7,8)           179.4993         estimate D2E/DX2                !
 ! D2    D(14,1,7,9)           -56.1655         estimate D2E/DX2                !
 ! D3    D(14,1,7,16)           63.4023         estimate D2E/DX2                !
 ! D4    D(7,1,14,5)            60.9819         estimate D2E/DX2                !
 ! D5    D(7,1,14,26)          -63.2615         estimate D2E/DX2                !
 ! D6    D(7,1,14,27)          179.4683         estimate D2E/DX2                !
 ! D7    D(15,2,8,7)           179.4734         estimate D2E/DX2                !
 ! D8    D(15,2,8,10)          -56.1657         estimate D2E/DX2                !
 ! D9    D(15,2,8,17)           63.3943         estimate D2E/DX2                !
 ! D10   D(8,2,15,6)            61.0224         estimate D2E/DX2                !
 ! D11   D(8,2,15,28)          -63.2335         estimate D2E/DX2                !
 ! D12   D(8,2,15,29)          179.5033         estimate D2E/DX2                !
 ! D13   D(13,3,9,7)            92.6367         estimate D2E/DX2                !
 ! D14   D(13,3,9,11)         -148.2267         estimate D2E/DX2                !
 ! D15   D(13,3,9,18)          -30.0202         estimate D2E/DX2                !
 ! D16   D(9,3,13,4)           -44.513          estimate D2E/DX2                !
 ! D17   D(9,3,13,24)           77.4631         estimate D2E/DX2                !
 ! D18   D(9,3,13,25)         -166.8954         estimate D2E/DX2                !
 ! D19   D(13,4,10,8)           92.6166         estimate D2E/DX2                !
 ! D20   D(13,4,10,12)        -148.2629         estimate D2E/DX2                !
 ! D21   D(13,4,10,19)         -30.0465         estimate D2E/DX2                !
 ! D22   D(10,4,13,3)          -44.4356         estimate D2E/DX2                !
 ! D23   D(10,4,13,24)        -166.8318         estimate D2E/DX2                !
 ! D24   D(10,4,13,25)          77.5388         estimate D2E/DX2                !
 ! D25   D(14,5,11,9)           57.2837         estimate D2E/DX2                !
 ! D26   D(14,5,11,20)         -66.1324         estimate D2E/DX2                !
 ! D27   D(14,5,11,21)         178.0265         estimate D2E/DX2                !
 ! D28   D(11,5,14,1)          -60.9856         estimate D2E/DX2                !
 ! D29   D(11,5,14,26)          63.2256         estimate D2E/DX2                !
 ! D30   D(11,5,14,27)        -179.4682         estimate D2E/DX2                !
 ! D31   D(15,6,12,10)          57.2929         estimate D2E/DX2                !
 ! D32   D(15,6,12,22)         -66.1262         estimate D2E/DX2                !
 ! D33   D(15,6,12,23)         178.0355         estimate D2E/DX2                !
 ! D34   D(12,6,15,2)          -61.0344         estimate D2E/DX2                !
 ! D35   D(12,6,15,28)          63.1835         estimate D2E/DX2                !
 ! D36   D(12,6,15,29)        -179.505          estimate D2E/DX2                !
 ! D37   D(1,7,8,2)            -69.4202         estimate D2E/DX2                !
 ! D38   D(1,7,8,10)           169.4525         estimate D2E/DX2                !
 ! D39   D(1,7,8,17)            46.5781         estimate D2E/DX2                !
 ! D40   D(9,7,8,2)            169.4791         estimate D2E/DX2                !
 ! D41   D(9,7,8,10)            48.3517         estimate D2E/DX2                !
 ! D42   D(9,7,8,17)           -74.5227         estimate D2E/DX2                !
 ! D43   D(16,7,8,2)            46.5947         estimate D2E/DX2                !
 ! D44   D(16,7,8,10)          -74.5326         estimate D2E/DX2                !
 ! D45   D(16,7,8,17)          162.593          estimate D2E/DX2                !
 ! D46   D(1,7,9,3)            170.9549         estimate D2E/DX2                !
 ! D47   D(1,7,9,11)            52.9565         estimate D2E/DX2                !
 ! D48   D(1,7,9,18)           -65.3413         estimate D2E/DX2                !
 ! D49   D(8,7,9,3)            -69.2179         estimate D2E/DX2                !
 ! D50   D(8,7,9,11)           172.7838         estimate D2E/DX2                !
 ! D51   D(8,7,9,18)            54.4859         estimate D2E/DX2                !
 ! D52   D(16,7,9,3)            52.6382         estimate D2E/DX2                !
 ! D53   D(16,7,9,11)          -65.3601         estimate D2E/DX2                !
 ! D54   D(16,7,9,18)          176.342          estimate D2E/DX2                !
 ! D55   D(2,8,10,4)           170.894          estimate D2E/DX2                !
 ! D56   D(2,8,10,12)           52.9195         estimate D2E/DX2                !
 ! D57   D(2,8,10,19)          -65.3948         estimate D2E/DX2                !
 ! D58   D(7,8,10,4)           -69.2578         estimate D2E/DX2                !
 ! D59   D(7,8,10,12)          172.7676         estimate D2E/DX2                !
 ! D60   D(7,8,10,19)           54.4533         estimate D2E/DX2                !
 ! D61   D(17,8,10,4)           52.5863         estimate D2E/DX2                !
 ! D62   D(17,8,10,12)         -65.3882         estimate D2E/DX2                !
 ! D63   D(17,8,10,19)         176.2975         estimate D2E/DX2                !
 ! D64   D(3,9,11,5)          -173.484          estimate D2E/DX2                !
 ! D65   D(3,9,11,20)          -51.1136         estimate D2E/DX2                !
 ! D66   D(3,9,11,21)           66.7733         estimate D2E/DX2                !
 ! D67   D(7,9,11,5)           -54.1644         estimate D2E/DX2                !
 ! D68   D(7,9,11,20)           68.2059         estimate D2E/DX2                !
 ! D69   D(7,9,11,21)         -173.9071         estimate D2E/DX2                !
 ! D70   D(18,9,11,5)           65.6329         estimate D2E/DX2                !
 ! D71   D(18,9,11,20)        -171.9967         estimate D2E/DX2                !
 ! D72   D(18,9,11,21)         -54.1097         estimate D2E/DX2                !
 ! D73   D(4,10,12,6)         -173.4244         estimate D2E/DX2                !
 ! D74   D(4,10,12,22)         -51.0435         estimate D2E/DX2                !
 ! D75   D(4,10,12,23)          66.8319         estimate D2E/DX2                !
 ! D76   D(8,10,12,6)          -54.1308         estimate D2E/DX2                !
 ! D77   D(8,10,12,22)          68.2502         estimate D2E/DX2                !
 ! D78   D(8,10,12,23)        -173.8745         estimate D2E/DX2                !
 ! D79   D(19,10,12,6)          65.6821         estimate D2E/DX2                !
 ! D80   D(19,10,12,22)       -171.937          estimate D2E/DX2                !
 ! D81   D(19,10,12,23)        -54.0617         estimate D2E/DX2                !
 --------------------------------------------------------------------------------
 Trust Radius=3.00D-01 FncErr=1.00D-07 GrdErr=1.00D-06 EigMax=2.50D+02 EigMin=1.00D-04
 Number of steps in this run=    174 maximum allowed number of steps=    174.
 GradGradGradGradGradGradGradGradGradGradGradGradGradGradGradGradGradGrad

                          Input orientation:                          
 ---------------------------------------------------------------------
 Center     Atomic      Atomic             Coordinates (Angstroms)
 Number     Number       Type             X           Y           Z
 ---------------------------------------------------------------------
      1          8           0       -1.375800   -1.642000   -0.362000
      2          8           0        1.376000   -1.642200    0.361900
      3          8           0       -1.011800    1.854500    0.666700
      4          8           0        1.012000    1.854400   -0.667000
      5          8           0       -3.506300   -0.598300   -0.333400
      6          8           0        3.506300   -0.598500    0.333500
      7          6           0       -0.729100   -0.512400    0.246100
      8          6           0        0.729100   -0.512200   -0.245600
      9          6           0       -1.514100    0.763600   -0.093700
     10          6           0        1.514100    0.763800    0.094200
     11          6           0       -2.983800    0.574000    0.282200
     12          6           0        2.983900    0.574100   -0.281500
     13          6           0       -0.000300    2.600500   -0.000600
     14          6           0       -2.739200   -1.739700    0.041300
     15          6           0        2.739200   -1.739500   -0.042200
     16          1           0       -0.722400   -0.670700    1.334000
     17          1           0        0.722200   -0.670200   -1.333600
     18          1           0       -1.467700    0.960300   -1.173800
     19          1           0        1.467400    0.960900    1.174300
     20          1           0       -3.117600    0.513500    1.369900
     21          1           0       -3.572800    1.434200   -0.054000
     22          1           0        3.117800    0.514300   -1.369200
     23          1           0        3.573000    1.434200    0.055300
     24          1           0       -0.478000    3.250700   -0.741100
     25          1           0        0.477100    3.252000    0.739000
     26          1           0       -2.808700   -1.912700    1.122400
     27          1           0       -3.171800   -2.609200   -0.462000
     28          1           0        2.808200   -1.911500   -1.123500
     29          1           0        3.171900   -2.609500    0.460000
 ---------------------------------------------------------------------
                    Distance matrix (angstroms):
                    1          2          3          4          5
     1  O    0.000000
     2  O    2.845423   0.000000
     3  O    3.662817   4.245162   0.000000
     4  O    4.244930   3.662969   2.423741   0.000000
     5  O    2.372585   5.040836   3.638538   5.151899   0.000000
     6  O    5.040587   2.372403   5.151840   3.638578   7.044240
     7  C    1.436664   2.391925   2.420545   3.076837   2.838316
     8  C    2.391778   1.436814   3.076409   2.420414   4.237185
     9  C    2.424463   3.787892   1.421470   2.810640   2.425096
    10  C    3.787811   2.424783   2.810259   1.421597   5.219442
    11  C    2.812706   4.891396   2.382500   4.301956   1.423467
    12  C    4.891274   2.812702   4.301642   2.382471   6.595446
    13  C    4.474530   4.475054   1.423003   1.423203   4.757637
    14  C    1.425151   4.128821   4.036497   5.243162   1.425355
    15  C    4.128559   1.425159   5.243031   4.036052   6.355581
    16  H    2.060770   2.508401   2.627865   3.658999   3.245853
    17  H    2.507988   2.060815   3.658151   2.627155   4.345777
    18  H    2.727532   4.149459   2.096397   2.684245   2.700259
    19  H    4.149589   2.728457   2.683768   2.096692   5.426044
    20  H    3.267954   5.084835   2.593678   4.795891   2.070850
    21  H    3.792714   5.841903   2.693470   4.644645   2.052692
    22  H    5.084931   3.268190   4.795271   2.592942   6.796283
    23  H    5.841898   3.792763   4.644443   2.693883   7.375543
    24  H    4.988815   5.347373   2.053343   2.043342   4.914430
    25  H    5.347586   4.990333   2.043296   2.053348   5.642901
    26  H    2.080847   4.261836   4.198608   5.656036   2.081741
    27  H    2.042325   4.721905   5.085684   6.121269   2.042583
    28  H    4.261264   2.080897   5.655084   4.197229   6.497820
    29  H    4.721580   2.042192   6.121549   5.085440   7.019456
                    6          7          8          9         10
     6  O    0.000000
     7  C    4.237177   0.000000
     8  C    2.838247   1.538868   0.000000
     9  C    5.219409   1.536185   2.585089   0.000000
    10  C    2.425281   2.585287   1.536185   3.034024   0.000000
    11  C    6.595361   2.503046   3.904360   1.528812   4.505827
    12  C    1.423418   3.904512   2.503090   4.505905   1.528872
    13  C    4.758305   3.206580   3.206392   2.382112   2.382407
    14  C    6.355627   2.364045   3.690281   2.790270   4.935673
    15  C    1.425298   3.690257   2.363924   4.935456   2.790338
    16  H    4.346046   1.099377   2.151072   2.173093   2.932035
    17  H    3.245855   2.150959   1.099434   2.931582   2.173033
    18  H    5.426093   2.174969   2.802810   1.098845   3.246162
    19  H    2.701071   2.802995   2.175138   3.245935   1.098929
    20  H    6.796081   2.832019   4.296394   2.185380   4.810687
    21  H    7.375343   3.459182   4.725625   2.165531   5.133026
    22  H    2.070856   4.296737   2.832325   4.810774   2.185325
    23  H    2.052733   4.725857   3.459304   5.133273   2.165645
    24  H    5.643204   3.898530   3.982716   2.770974   3.294064
    25  H    4.915977   3.983538   3.898993   3.293995   2.771692
    26  H    6.498362   2.655838   4.043372   3.212082   5.187239
    27  H    7.019455   3.296173   4.434102   3.776161   5.800357
    28  H    2.081865   4.042991   2.655448   5.186417   3.211653
    29  H    2.042534   4.434116   3.296030   5.800257   3.776409
                   11         12         13         14         15
    11  C    0.000000
    12  C    5.994264   0.000000
    13  C    3.617727   3.618101   0.000000
    14  C    2.339032   6.181565   5.132316   0.000000
    15  C    6.181444   2.338779   5.132464   5.479036   0.000000
    16  H    2.787381   4.230370   3.606014   2.623226   3.875427
    17  H    4.230045   2.787559   3.605048   3.874980   2.622862
    18  H    2.137223   4.556544   2.493976   3.222294   5.125178
    19  H    4.556173   2.137461   2.494558   5.125662   3.223276
    20  H    1.097567   6.321321   3.993920   2.642967   6.432118
    21  H    1.095397   6.616785   3.758439   3.282927   7.064974
    22  H    6.321409   1.097541   3.993475   6.432299   2.642703
    23  H    6.616876   1.095557   3.759236   7.065246   3.282849
    24  H    3.806691   4.400019   1.095124   5.534371   5.978372
    25  H    4.399793   3.807442   1.095158   5.979000   5.535562
    26  H    2.630641   6.458276   5.432975   1.097058   5.671462
    27  H    3.274437   6.932433   6.116558   1.093839   5.989368
    28  H    6.457629   2.630217   5.432009   5.670972   1.097066
    29  H    6.932455   3.274214   6.117116   5.989404   1.093771
                   16         17         18         19         20
    16  H    0.000000
    17  H    3.033638   0.000000
    18  H    3.082968   2.734909   0.000000
    19  H    2.735479   3.083078   3.758775   0.000000
    20  H    2.672190   4.842946   3.064671   4.610927   0.000000
    21  H    3.805513   4.951050   2.431045   5.209256   1.755673
    22  H    4.843413   2.672678   4.611280   3.064745   6.810498
    23  H    4.951377   3.805864   5.209983   2.430993   6.880406
    24  H    4.443326   4.143066   2.532325   3.563218   4.349261
    25  H    4.144925   4.442904   3.562715   2.533638   4.562815
    26  H    2.437209   4.476941   3.914709   5.152213   2.458276
    27  H    3.603187   4.436513   4.018948   6.078262   3.620780
    28  H    4.477056   2.436465   5.151028   3.915139   6.871155
    29  H    4.437161   3.602626   6.077719   4.020361   7.080880
                   21         22         23         24         25
    21  H    0.000000
    22  H    6.880414   0.000000
    23  H    7.146636   1.755740   0.000000
    24  H    3.653706   4.562036   4.510491   0.000000
    25  H    4.509427   4.348885   3.654646   1.761509   0.000000
    26  H    3.628981   6.871812   7.284678   5.963681   6.133319
    27  H    4.083669   7.080843   7.880927   6.455454   7.007891
    28  H    7.283866   2.457789   3.628801   6.131366   5.963612
    29  H    7.880779   3.620363   4.083647   7.007593   6.457319
                   26         27         28         29
    26  H    0.000000
    27  H    1.768411   0.000000
    28  H    6.049267   6.056795   0.000000
    29  H    6.057382   6.410352   1.768320   0.000000
 Stoichiometry    C9H14O6
 Framework group  C1[X(C9H14O6)]
 Deg. of freedom    81
 Full point group                 C1      NOp   1
 Largest Abelian subgroup         C1      NOp   1
 Largest concise Abelian subgroup C1      NOp   1
                         Standard orientation:                         
 ---------------------------------------------------------------------
 Center     Atomic      Atomic             Coordinates (Angstroms)
 Number     Number       Type             X           Y           Z
 ---------------------------------------------------------------------
      1          8           0        1.372119   -1.645386    0.375701
      2          8           0       -1.372310   -1.645585   -0.375662
      3          8           0        1.018418    1.851114   -0.656586
      4          8           0       -1.018609    1.851015    0.656823
      5          8           0        3.502799   -0.601686    0.368392
      6          8           0       -3.502787   -0.601885   -0.368552
      7          6           0        0.731528   -0.515786   -0.238832
      8          6           0       -0.731513   -0.515585    0.238272
      9          6           0        1.513094    0.760214    0.108796
     10          6           0       -1.513077    0.760415   -0.109356
     11          6           0        2.986477    0.570614   -0.252399
     12          6           0       -2.986558    0.570715    0.251637
     13          6           0        0.000300    2.597115    0.000572
     14          6           0        2.739481   -1.743086   -0.013955
     15          6           0       -2.739480   -1.742885    0.014795
     16          1           0        0.735700   -0.674086   -1.326744
     17          1           0       -0.735485   -0.673585    1.326286
     18          1           0        1.455903    0.956915    1.188378
     19          1           0       -1.455586    0.957515   -1.188935
     20          1           0        3.131139    0.510114   -1.338707
     21          1           0        3.572088    1.430814    0.089670
     22          1           0       -3.131321    0.510916    1.337945
     23          1           0       -3.572263    1.430815   -0.091033
     24          1           0        0.470576    3.247315    0.745809
     25          1           0       -0.469685    3.248615   -0.743762
     26          1           0        2.819781   -1.916086   -1.094306
     27          1           0        3.167030   -2.612586    0.493643
     28          1           0       -2.819282   -1.914885    1.095352
     29          1           0       -3.167140   -2.612885   -0.491704
 ---------------------------------------------------------------------
 Rotational constants (GHZ):           1.0542777           0.4699885           0.3426189
 Standard basis: 6-311++G(d,p) (5D, 7F)
 There are   443 symmetry adapted cartesian basis functions of A   symmetry.
 There are   428 symmetry adapted basis functions of A   symmetry.
   428 basis functions,   666 primitive gaussians,   443 cartesian basis functions
    58 alpha electrons       58 beta electrons
       nuclear repulsion energy      1156.0502441767 Hartrees.
 NAtoms=   29 NActive=   29 NUniq=   29 SFac= 1.00D+00 NAtFMM=   60 NAOKFM=F Big=F
 Integral buffers will be    131072 words long.
 Raffenetti 2 integral format.
 Two-electron integral symmetry is turned on.
 R6APFD:  NTU= -4 IXU= 1 FactS= 1.050
 Nuclear repulsion after empirical dispersion term =     1156.0202698374 Hartrees.
 One-electron integrals computed using PRISM.
 NBasis=   428 RedAO= T EigKep=  1.48D-06  NBF=   428
 NBsUse=   428 1.00D-06 EigRej= -1.00D+00 NBFU=   428
 ExpMin= 3.60D-02 ExpMax= 8.59D+03 ExpMxC= 1.30D+03 IAcc=3 IRadAn=         5 AccDes= 0.00D+00
 Harris functional with IExCor= 1009 and IRadAn=       5 diagonalized for initial guess.
 HarFok:  IExCor= 1009 AccDes= 0.00D+00 IRadAn=         5 IDoV= 1 UseB2=F ITyADJ=14
 ICtDFT=  3500011 ScaDFX=  1.000000  1.000000  1.000000  1.000000
 FoFCou: FMM=F IPFlag=           0 FMFlag=      100000 FMFlg1=           0
         NFxFlg=           0 DoJE=T BraDBF=F KetDBF=T FulRan=T
         wScrn=  0.000000 ICntrl=       500 IOpCl=  0 I1Cent=   200000004 NGrid=           0
         NMat0=    1 NMatS0=      1 NMatT0=    0 NMatD0=    1 NMtDS0=    0 NMtDT0=    0
 Petite list used in FoFCou.
 Requested convergence on RMS density matrix=1.00D-08 within  32 cycles.
 Requested convergence on MAX density matrix=1.00D-06.
 Requested convergence on             energy=1.00D-06.
 No special actions if energy rises.
 SCF Done:  E(RM08HX) =  -802.656692701     A.U. after   13 cycles
            NFock= 13  Conv=0.48D-08     -V/T= 2.0044
 QCSCF skips out because SCF is already converged.

 **********************************************************************

            Population analysis using the SCF Density.

 **********************************************************************

 Orbital symmetries:
       Occupied  (A) (A) (A) (A) (A) (A) (A) (A) (A) (A) (A) (A)
                 (A) (A) (A) (A) (A) (A) (A) (A) (A) (A) (A) (A)
                 (A) (A) (A) (A) (A) (A) (A) (A) (A) (A) (A) (A)
                 (A) (A) (A) (A) (A) (A) (A) (A) (A) (A) (A) (A)
                 (A) (A) (A) (A) (A) (A) (A) (A) (A) (A)
       Virtual   (A) (A) (A) (A) (A) (A) (A) (A) (A) (A) (A) (A)
                 (A) (A) (A) (A) (A) (A) (A) (A) (A) (A) (A) (A)
                 (A) (A) (A) (A) (A) (A) (A) (A) (A) (A) (A) (A)
                 (A) (A) (A) (A) (A) (A) (A) (A) (A) (A) (A) (A)
                 (A) (A) (A) (A) (A) (A) (A) (A) (A) (A) (A) (A)
                 (A) (A) (A) (A) (A) (A) (A) (A) (A) (A) (A) (A)
                 (A) (A) (A) (A) (A) (A) (A) (A) (A) (A) (A) (A)
                 (A) (A) (A) (A) (A) (A) (A) (A) (A) (A) (A) (A)
                 (A) (A) (A) (A) (A) (A) (A) (A) (A) (A) (A) (A)
                 (A) (A) (A) (A) (A) (A) (A) (A) (A) (A) (A) (A)
                 (A) (A) (A) (A) (A) (A) (A) (A) (A) (A) (A) (A)
                 (A) (A) (A) (A) (A) (A) (A) (A) (A) (A) (A) (A)
                 (A) (A) (A) (A) (A) (A) (A) (A) (A) (A) (A) (A)
                 (A) (A) (A) (A) (A) (A) (A) (A) (A) (A) (A) (A)
                 (A) (A) (A) (A) (A) (A) (A) (A) (A) (A) (A) (A)
                 (A) (A) (A) (A) (A) (A) (A) (A) (A) (A) (A) (A)
                 (A) (A) (A) (A) (A) (A) (A) (A) (A) (A) (A) (A)
                 (A) (A) (A) (A) (A) (A) (A) (A) (A) (A) (A) (A)
                 (A) (A) (A) (A) (A) (A) (A) (A) (A) (A) (A) (A)
                 (A) (A) (A) (A) (A) (A) (A) (A) (A) (A) (A) (A)
                 (A) (A) (A) (A) (A) (A) (A) (A) (A) (A) (A) (A)
                 (A) (A) (A) (A) (A) (A) (A) (A) (A) (A) (A) (A)
                 (A) (A) (A) (A) (A) (A) (A) (A) (A) (A) (A) (A)
                 (A) (A) (A) (A) (A) (A) (A) (A) (A) (A) (A) (A)
                 (A) (A) (A) (A) (A) (A) (A) (A) (A) (A) (A) (A)
                 (A) (A) (A) (A) (A) (A) (A) (A) (A) (A) (A) (A)
                 (A) (A) (A) (A) (A) (A) (A) (A) (A) (A) (A) (A)
                 (A) (A) (A) (A) (A) (A) (A) (A) (A) (A) (A) (A)
                 (A) (A) (A) (A) (A) (A) (A) (A) (A) (A) (A) (A)
                 (A) (A) (A) (A) (A) (A) (A) (A) (A) (A) (A) (A)
                 (A) (A) (A) (A) (A) (A) (A) (A) (A) (A)
 The electronic state is 1-A.
 Alpha  occ. eigenvalues --  -19.64589 -19.64585 -19.63292 -19.63292 -19.63216
 Alpha  occ. eigenvalues --  -19.63214 -10.64772 -10.63588 -10.63585 -10.60509
 Alpha  occ. eigenvalues --  -10.60508 -10.60233 -10.60195 -10.59140 -10.59140
 Alpha  occ. eigenvalues --   -1.22247  -1.20574  -1.20516  -1.15566  -1.14332
 Alpha  occ. eigenvalues --   -1.13156  -0.93674  -0.88839  -0.83922  -0.80857
 Alpha  occ. eigenvalues --   -0.77872  -0.74861  -0.74177  -0.69562  -0.68328
 Alpha  occ. eigenvalues --   -0.62662  -0.61818  -0.61323  -0.60223  -0.59399
 Alpha  occ. eigenvalues --   -0.58045  -0.57029  -0.55891  -0.55831  -0.53722
 Alpha  occ. eigenvalues --   -0.52649  -0.50832  -0.49082  -0.48703  -0.48604
 Alpha  occ. eigenvalues --   -0.47989  -0.45224  -0.43638  -0.43512  -0.41550
 Alpha  occ. eigenvalues --   -0.40910  -0.40240  -0.39271  -0.37569  -0.36173
 Alpha  occ. eigenvalues --   -0.35940  -0.34300  -0.33923
 Alpha virt. eigenvalues --   -0.02881  -0.02184  -0.01833  -0.01775  -0.00204
 Alpha virt. eigenvalues --    0.00068   0.00518   0.00748   0.00896   0.02324
 Alpha virt. eigenvalues --    0.02635   0.03146   0.03511   0.03732   0.03951
 Alpha virt. eigenvalues --    0.04084   0.05793   0.06458   0.07411   0.07894
 Alpha virt. eigenvalues --    0.08544   0.08869   0.09400   0.09889   0.10051
 Alpha virt. eigenvalues --    0.10444   0.10482   0.10642   0.11098   0.11711
 Alpha virt. eigenvalues --    0.11844   0.12270   0.12383   0.12776   0.12904
 Alpha virt. eigenvalues --    0.13576   0.13685   0.13812   0.13926   0.15146
 Alpha virt. eigenvalues --    0.15530   0.15660   0.15672   0.15799   0.16576
 Alpha virt. eigenvalues --    0.16606   0.17067   0.17533   0.19382   0.19769
 Alpha virt. eigenvalues --    0.20301   0.20302   0.20748   0.22717   0.23317
 Alpha virt. eigenvalues --    0.23365   0.23872   0.24323   0.24742   0.25779
 Alpha virt. eigenvalues --    0.25880   0.26249   0.26531   0.27171   0.27677
 Alpha virt. eigenvalues --    0.27742   0.28415   0.28644   0.28852   0.29085
 Alpha virt. eigenvalues --    0.29644   0.30039   0.30740   0.30870   0.31319
 Alpha virt. eigenvalues --    0.31499   0.31614   0.31776   0.32281   0.32875
 Alpha virt. eigenvalues --    0.33423   0.33688   0.33989   0.34361   0.34486
 Alpha virt. eigenvalues --    0.35469   0.35646   0.35974   0.36395   0.36997
 Alpha virt. eigenvalues --    0.37411   0.37453   0.39308   0.39608   0.40522
 Alpha virt. eigenvalues --    0.40584   0.40906   0.41399   0.42842   0.42976
 Alpha virt. eigenvalues --    0.42987   0.44997   0.46724   0.47324   0.50076
 Alpha virt. eigenvalues --    0.50520   0.50779   0.54461   0.55371   0.56609
 Alpha virt. eigenvalues --    0.57760   0.58522   0.59186   0.61159   0.62968
 Alpha virt. eigenvalues --    0.63008   0.64404   0.64548   0.65961   0.66568
 Alpha virt. eigenvalues --    0.67027   0.68863   0.69630   0.70256   0.70428
 Alpha virt. eigenvalues --    0.71798   0.72487   0.72791   0.73480   0.73543
 Alpha virt. eigenvalues --    0.74639   0.74750   0.75355   0.75890   0.75960
 Alpha virt. eigenvalues --    0.78321   0.78689   0.80071   0.81014   0.82461
 Alpha virt. eigenvalues --    0.82833   0.83152   0.84701   0.86130   0.86749
 Alpha virt. eigenvalues --    0.94302   0.94614   0.96346   1.00075   1.03336
 Alpha virt. eigenvalues --    1.03910   1.05470   1.05947   1.08409   1.08674
 Alpha virt. eigenvalues --    1.09298   1.12782   1.13148   1.14771   1.16481
 Alpha virt. eigenvalues --    1.18447   1.20626   1.20922   1.23089   1.24702
 Alpha virt. eigenvalues --    1.25488   1.26904   1.27148   1.28023   1.28370
 Alpha virt. eigenvalues --    1.29514   1.30019   1.33071   1.35032   1.36084
 Alpha virt. eigenvalues --    1.37208   1.39337   1.39657   1.40470   1.41126
 Alpha virt. eigenvalues --    1.41402   1.43154   1.43578   1.48413   1.49017
 Alpha virt. eigenvalues --    1.52233   1.52798   1.55414   1.55699   1.56598
 Alpha virt. eigenvalues --    1.57537   1.59969   1.61210   1.61532   1.63224
 Alpha virt. eigenvalues --    1.63395   1.63725   1.64973   1.65800   1.65820
 Alpha virt. eigenvalues --    1.67695   1.67852   1.68369   1.69124   1.71652
 Alpha virt. eigenvalues --    1.71749   1.72228   1.72870   1.73412   1.73851
 Alpha virt. eigenvalues --    1.75295   1.75922   1.77049   1.77704   1.79234
 Alpha virt. eigenvalues --    1.79723   1.80683   1.81493   1.84360   1.84483
 Alpha virt. eigenvalues --    1.84971   1.88197   1.88761   1.91915   1.92717
 Alpha virt. eigenvalues --    1.93763   1.93797   1.96425   1.97872   1.98586
 Alpha virt. eigenvalues --    2.00320   2.03799   2.04508   2.06520   2.06797
 Alpha virt. eigenvalues --    2.10983   2.12010   2.12945   2.14260   2.17539
 Alpha virt. eigenvalues --    2.19259   2.21458   2.21537   2.23672   2.24391
 Alpha virt. eigenvalues --    2.25100   2.29417   2.29802   2.32112   2.33957
 Alpha virt. eigenvalues --    2.39340   2.39852   2.47574   2.48341   2.48712
 Alpha virt. eigenvalues --    2.49008   2.49614   2.51419   2.53764   2.55370
 Alpha virt. eigenvalues --    2.57945   2.58915   2.62377   2.63201   2.66009
 Alpha virt. eigenvalues --    2.66507   2.67405   2.70287   2.71784   2.73919
 Alpha virt. eigenvalues --    2.75204   2.77678   2.80023   2.81683   2.84494
 Alpha virt. eigenvalues --    2.85074   2.86541   2.87140   2.89834   2.89951
 Alpha virt. eigenvalues --    2.94414   2.95408   2.96563   2.97697   2.98030
 Alpha virt. eigenvalues --    2.98599   3.02016   3.03266   3.05044   3.07128
 Alpha virt. eigenvalues --    3.07475   3.08133   3.09690   3.10261   3.14632
 Alpha virt. eigenvalues --    3.15590   3.16258   3.17560   3.18089   3.19922
 Alpha virt. eigenvalues --    3.25806   3.27817   3.28231   3.28671   3.28681
 Alpha virt. eigenvalues --    3.29764   3.37163   3.38586   3.40930   3.42358
 Alpha virt. eigenvalues --    3.43559   3.44917   3.53018   3.53283   3.60909
 Alpha virt. eigenvalues --    3.80339   3.80463   3.81955   3.84049   3.84951
 Alpha virt. eigenvalues --    3.95787   4.01793   4.05025   4.06016   4.07496
 Alpha virt. eigenvalues --    4.09750   4.09762   4.11804   4.13565   4.16349
 Alpha virt. eigenvalues --    4.18935   4.21371   4.24174   4.27200   4.32742
 Alpha virt. eigenvalues --    4.33607   4.45721   5.23194   5.24277   5.25068
 Alpha virt. eigenvalues --    5.27442   5.29015   5.29957   5.44866   5.46747
 Alpha virt. eigenvalues --    5.47482   5.51934   5.53198   5.55831   5.63322
 Alpha virt. eigenvalues --    5.69434   5.77746   5.81653   5.83036   5.87934
 Alpha virt. eigenvalues --   23.82602  23.84817  23.85072  23.87475  23.88105
 Alpha virt. eigenvalues --   23.88883  23.92758  23.93011  23.93267  49.92048
 Alpha virt. eigenvalues --   49.93813  49.94950  49.97184  49.97280  49.99650
          Condensed to atoms (all electrons):
               1          2          3          4          5          6
     1  O    7.900767   0.014835   0.019830  -0.005134   0.009159   0.000244
     2  O    0.014835   7.900634  -0.005125   0.019819   0.000244   0.009184
     3  O    0.019830  -0.005125   8.032610  -0.024534   0.007148   0.000473
     4  O   -0.005134   0.019819  -0.024534   8.032559   0.000475   0.007147
     5  O    0.009159   0.000244   0.007148   0.000475   7.950717  -0.000063
     6  O    0.000244   0.009184   0.000473   0.007147  -0.000063   7.950733
     7  C    0.117464  -0.149641  -0.422172   0.146760  -0.203373   0.028122
     8  C   -0.149531   0.118597   0.146937  -0.421283   0.028140  -0.203418
     9  C   -0.048766   0.158074   0.416915   0.051222   0.022437   0.000175
    10  C    0.158332  -0.049432   0.051463   0.416413   0.000129   0.022407
    11  C    0.008553  -0.012481  -0.423688   0.010288   0.296358  -0.001658
    12  C   -0.012550   0.008846   0.010256  -0.423238  -0.001657   0.296443
    13  C    0.016693   0.016619   0.301920   0.301742   0.004117   0.004070
    14  C    0.115908   0.022220   0.025047   0.004533   0.143436   0.001139
    15  C    0.022286   0.115794   0.004571   0.025015   0.001137   0.143350
    16  H   -0.085142  -0.016011  -0.010938  -0.002885   0.000996  -0.000912
    17  H   -0.016017  -0.085104  -0.002912  -0.010964  -0.000905   0.000983
    18  H   -0.007140   0.001368  -0.050560   0.001685   0.003294  -0.000845
    19  H    0.001372  -0.007090   0.001690  -0.050517  -0.000846   0.003286
    20  H    0.016599  -0.001480   0.004141  -0.001494  -0.049126  -0.000001
    21  H   -0.005360   0.000867   0.006259   0.000613  -0.068114   0.000069
    22  H   -0.001481   0.016573  -0.001497   0.004139  -0.000001  -0.049115
    23  H    0.000867  -0.005347   0.000611   0.006251   0.000069  -0.068126
    24  H    0.000461   0.000820  -0.056357  -0.085528  -0.000327   0.000439
    25  H    0.000822   0.000457  -0.085516  -0.056419   0.000439  -0.000327
    26  H   -0.020712  -0.002610   0.002622   0.000403  -0.062021  -0.000144
    27  H   -0.077025   0.002935   0.000145   0.000358  -0.063154   0.000065
    28  H   -0.002619  -0.020720   0.000405   0.002616  -0.000145  -0.061971
    29  H    0.002943  -0.077001   0.000359   0.000143   0.000065  -0.063151
               7          8          9         10         11         12
     1  O    0.117464  -0.149531  -0.048766   0.158332   0.008553  -0.012550
     2  O   -0.149641   0.118597   0.158074  -0.049432  -0.012481   0.008846
     3  O   -0.422172   0.146937   0.416915   0.051463  -0.423688   0.010256
     4  O    0.146760  -0.421283   0.051222   0.416413   0.010288  -0.423238
     5  O   -0.203373   0.028140   0.022437   0.000129   0.296358  -0.001657
     6  O    0.028122  -0.203418   0.000175   0.022407  -0.001658   0.296443
     7  C   30.887917 -17.674658  -9.979758   2.540509   3.420637  -1.490711
     8  C  -17.674658  30.871527   2.553747  -9.971775  -1.497484   3.412674
     9  C   -9.979758   2.553747  15.851171   0.334501  -3.993090  -0.006280
    10  C    2.540509  -9.971775   0.334501  15.853678  -0.007232  -3.989260
    11  C    3.420637  -1.497484  -3.993090  -0.007232  10.125586   0.005013
    12  C   -1.490711   3.412674  -0.006280  -3.989260   0.005013  10.121626
    13  C   -0.165177  -0.162483  -0.415635  -0.415566  -0.288263  -0.287780
    14  C   -1.218585   0.009444   1.202632   0.042508  -1.235969  -0.055246
    15  C    0.006642  -1.216449   0.042272   1.203375  -0.055393  -1.236988
    16  H    1.073568  -0.102087  -0.546552  -0.192160   0.076895  -0.002649
    17  H   -0.101408   1.072477  -0.191638  -0.546342  -0.002632   0.076572
    18  H   -0.061283  -0.009737   0.454054  -0.028196  -0.045047   0.017374
    19  H   -0.009925  -0.061774  -0.028071   0.454767   0.017295  -0.045289
    20  H   -0.286256   0.173723   0.188954   0.001259   0.223843   0.007426
    21  H    0.100687  -0.083387  -0.091380   0.020063   0.383090  -0.000972
    22  H    0.173603  -0.285828   0.001194   0.188453   0.007434   0.224203
    23  H   -0.083173   0.100365   0.020069  -0.091170  -0.000971   0.382990
    24  H   -0.024422  -0.001600   0.052723  -0.005248  -0.009549   0.017135
    25  H   -0.001758  -0.024221  -0.005310   0.052660   0.017111  -0.009522
    26  H   -0.137057   0.131181   0.006526   0.003107   0.030586   0.002176
    27  H    0.075230  -0.096332   0.032597  -0.000681  -0.043455  -0.004105
    28  H    0.131272  -0.136835   0.003091   0.006229   0.002168   0.030803
    29  H   -0.096454   0.075078  -0.000689   0.032870  -0.004113  -0.043621
              13         14         15         16         17         18
     1  O    0.016693   0.115908   0.022286  -0.085142  -0.016017  -0.007140
     2  O    0.016619   0.022220   0.115794  -0.016011  -0.085104   0.001368
     3  O    0.301920   0.025047   0.004571  -0.010938  -0.002912  -0.050560
     4  O    0.301742   0.004533   0.025015  -0.002885  -0.010964   0.001685
     5  O    0.004117   0.143436   0.001137   0.000996  -0.000905   0.003294
     6  O    0.004070   0.001139   0.143350  -0.000912   0.000983  -0.000845
     7  C   -0.165177  -1.218585   0.006642   1.073568  -0.101408  -0.061283
     8  C   -0.162483   0.009444  -1.216449  -0.102087   1.072477  -0.009737
     9  C   -0.415635   1.202632   0.042272  -0.546552  -0.191638   0.454054
    10  C   -0.415566   0.042508   1.203375  -0.192160  -0.546342  -0.028196
    11  C   -0.288263  -1.235969  -0.055393   0.076895  -0.002632  -0.045047
    12  C   -0.287780  -0.055246  -1.236988  -0.002649   0.076572   0.017374
    13  C    6.684437   0.031679   0.031865  -0.015823  -0.015980  -0.027254
    14  C    0.031679   6.457463   0.038445  -0.032343  -0.016421  -0.033384
    15  C    0.031865   0.038445   6.458461  -0.016445  -0.032267   0.001309
    16  H   -0.015823  -0.032343  -0.016445   0.518013   0.021350   0.004144
    17  H   -0.015980  -0.016421  -0.032267   0.021350   0.517846  -0.013876
    18  H   -0.027254  -0.033384   0.001309   0.004144  -0.013876   0.439751
    19  H   -0.027227   0.001324  -0.033250  -0.013948   0.004137  -0.004901
    20  H    0.006552  -0.021479  -0.000844  -0.028905   0.002413   0.003140
    21  H    0.013191   0.021252  -0.000062   0.003561  -0.001237  -0.017666
    22  H    0.006553  -0.000847  -0.021551   0.002413  -0.028865   0.002106
    23  H    0.013201  -0.000060   0.021248  -0.001231   0.003544  -0.000389
    24  H    0.377071   0.004342  -0.004306   0.000881  -0.000626   0.013465
    25  H    0.377228  -0.004310   0.004339  -0.000648   0.000861  -0.006790
    26  H    0.010327   0.273378  -0.006556   0.007591  -0.000130   0.001616
    27  H   -0.001489   0.470904   0.004069   0.002544  -0.001869   0.001192
    28  H    0.010301  -0.006566   0.273140  -0.000117   0.007601   0.001232
    29  H   -0.001467   0.004077   0.471038  -0.001878   0.002549  -0.000404
              19         20         21         22         23         24
     1  O    0.001372   0.016599  -0.005360  -0.001481   0.000867   0.000461
     2  O   -0.007090  -0.001480   0.000867   0.016573  -0.005347   0.000820
     3  O    0.001690   0.004141   0.006259  -0.001497   0.000611  -0.056357
     4  O   -0.050517  -0.001494   0.000613   0.004139   0.006251  -0.085528
     5  O   -0.000846  -0.049126  -0.068114  -0.000001   0.000069  -0.000327
     6  O    0.003286  -0.000001   0.000069  -0.049115  -0.068126   0.000439
     7  C   -0.009925  -0.286256   0.100687   0.173603  -0.083173  -0.024422
     8  C   -0.061774   0.173723  -0.083387  -0.285828   0.100365  -0.001600
     9  C   -0.028071   0.188954  -0.091380   0.001194   0.020069   0.052723
    10  C    0.454767   0.001259   0.020063   0.188453  -0.091170  -0.005248
    11  C    0.017295   0.223843   0.383090   0.007434  -0.000971  -0.009549
    12  C   -0.045289   0.007426  -0.000972   0.224203   0.382990   0.017135
    13  C   -0.027227   0.006552   0.013191   0.006553   0.013201   0.377071
    14  C    0.001324  -0.021479   0.021252  -0.000847  -0.000060   0.004342
    15  C   -0.033250  -0.000844  -0.000062  -0.021551   0.021248  -0.004306
    16  H   -0.013948  -0.028905   0.003561   0.002413  -0.001231   0.000881
    17  H    0.004137   0.002413  -0.001237  -0.028865   0.003544  -0.000626
    18  H   -0.004901   0.003140  -0.017666   0.002106  -0.000389   0.013465
    19  H    0.439763   0.002114  -0.000391   0.003119  -0.017661  -0.006800
    20  H    0.002114   0.492865  -0.030247  -0.000306   0.000115   0.000650
    21  H   -0.000391  -0.030247   0.467019   0.000115   0.000072  -0.003075
    22  H    0.003119  -0.000306   0.000115   0.492760  -0.030203  -0.000401
    23  H   -0.017661   0.000115   0.000072  -0.030203   0.466999   0.001837
    24  H   -0.006800   0.000650  -0.003075  -0.000401   0.001837   0.506572
    25  H    0.013487  -0.000392   0.001836   0.000653  -0.003072  -0.041495
    26  H    0.001230   0.020067  -0.007269  -0.000164   0.000264  -0.000009
    27  H   -0.000402  -0.008649   0.003607   0.000126  -0.000086   0.000258
    28  H    0.001633  -0.000164   0.000265   0.020069  -0.007271   0.000460
    29  H    0.001190   0.000126  -0.000086  -0.008649   0.003603  -0.000315
              25         26         27         28         29
     1  O    0.000822  -0.020712  -0.077025  -0.002619   0.002943
     2  O    0.000457  -0.002610   0.002935  -0.020720  -0.077001
     3  O   -0.085516   0.002622   0.000145   0.000405   0.000359
     4  O   -0.056419   0.000403   0.000358   0.002616   0.000143
     5  O    0.000439  -0.062021  -0.063154  -0.000145   0.000065
     6  O   -0.000327  -0.000144   0.000065  -0.061971  -0.063151
     7  C   -0.001758  -0.137057   0.075230   0.131272  -0.096454
     8  C   -0.024221   0.131181  -0.096332  -0.136835   0.075078
     9  C   -0.005310   0.006526   0.032597   0.003091  -0.000689
    10  C    0.052660   0.003107  -0.000681   0.006229   0.032870
    11  C    0.017111   0.030586  -0.043455   0.002168  -0.004113
    12  C   -0.009522   0.002176  -0.004105   0.030803  -0.043621
    13  C    0.377228   0.010327  -0.001489   0.010301  -0.001467
    14  C   -0.004310   0.273378   0.470904  -0.006566   0.004077
    15  C    0.004339  -0.006556   0.004069   0.273140   0.471038
    16  H   -0.000648   0.007591   0.002544  -0.000117  -0.001878
    17  H    0.000861  -0.000130  -0.001869   0.007601   0.002549
    18  H   -0.006790   0.001616   0.001192   0.001232  -0.000404
    19  H    0.013487   0.001230  -0.000402   0.001633   0.001190
    20  H   -0.000392   0.020067  -0.008649  -0.000164   0.000126
    21  H    0.001836  -0.007269   0.003607   0.000265  -0.000086
    22  H    0.000653  -0.000164   0.000126   0.020069  -0.008649
    23  H   -0.003072   0.000264  -0.000086  -0.007271   0.003603
    24  H   -0.041495  -0.000009   0.000258   0.000460  -0.000315
    25  H    0.506500   0.000462  -0.000317  -0.000008   0.000257
    26  H    0.000462   0.595350  -0.065970   0.001075  -0.000492
    27  H   -0.000317  -0.065970   0.474974  -0.000492   0.000126
    28  H   -0.000008   0.001075  -0.000492   0.595455  -0.065996
    29  H    0.000257  -0.000492   0.000126  -0.065996   0.474915
 Mulliken charges:
               1
     1  O    0.024344
     2  O    0.024156
     3  O    0.049894
     4  O    0.049817
     5  O   -0.018631
     6  O   -0.018600
     7  C   -0.596601
     8  C   -0.595008
     9  C   -0.085187
    10  C   -0.085660
    11  C   -1.003833
    12  C   -1.003668
    13  C   -0.383420
    14  C   -0.244520
    15  C   -0.244246
    16  H    0.358719
    17  H    0.358860
    18  H    0.361743
    19  H    0.361684
    20  H    0.285357
    21  H    0.286683
    22  H    0.285395
    23  H    0.286653
    24  H    0.262942
    25  H    0.262993
    26  H    0.215173
    27  H    0.294895
    28  H    0.215089
    29  H    0.294977
 Sum of Mulliken charges =  -0.00000
 Mulliken charges with hydrogens summed into heavy atoms:
               1
     1  O    0.024344
     2  O    0.024156
     3  O    0.049894
     4  O    0.049817
     5  O   -0.018631
     6  O   -0.018600
     7  C   -0.237883
     8  C   -0.236147
     9  C    0.276556
    10  C    0.276024
    11  C   -0.431794
    12  C   -0.431619
    13  C    0.142515
    14  C    0.265548
    15  C    0.265820
 Electronic spatial extent (au):  <R**2>=           3171.7935
 Charge=              0.0000 electrons
 Dipole moment (field-independent basis, Debye):
    X=              0.0018    Y=              1.4546    Z=              0.0005  Tot=              1.4546
 Quadrupole moment (field-independent basis, Debye-Ang):
   XX=            -93.8261   YY=            -84.3667   ZZ=            -91.3347
   XY=             -0.0018   XZ=             -5.6468   YZ=             -0.0032
 Traceless Quadrupole moment (field-independent basis, Debye-Ang):
   XX=             -3.9836   YY=              5.4758   ZZ=             -1.4922
   XY=             -0.0018   XZ=             -5.6468   YZ=             -0.0032
 Octapole moment (field-independent basis, Debye-Ang**2):
  XXX=             -0.0014  YYY=              4.8410  ZZZ=              0.0008  XYY=              0.0130
  XXY=             -4.0334  XXZ=              0.0064  XZZ=              0.0063  YZZ=             -3.8944
  YYZ=              0.0140  XYZ=             14.1616
 Hexadecapole moment (field-independent basis, Debye-Ang**3):
 XXXX=          -2892.5813 YYYY=          -1104.9907 ZZZZ=           -213.1951 XXXY=             -0.0145
 XXXZ=            -78.8754 YYYX=              0.0063 YYYZ=             -0.0053 ZZZX=              0.6581
 ZZZY=             -0.0029 XXYY=           -547.8749 XXZZ=           -483.4853 YYZZ=           -238.0769
 XXYZ=             -0.0545 YYXZ=             24.9622 ZZXY=             -0.0094
 N-N= 1.156020269837D+03 E-N=-4.191724327738D+03  KE= 7.991039817775D+02
 R6APFD:  NTU= -4 IXU= 1 FactS= 1.050
 Calling FoFJK, ICntrl=      2127 FMM=F ISym2X=0 I1Cent= 0 IOpClX= 0 NMat=1 NMatS=1 NMatT=0.
 ***** Axes restored to original set *****
 -------------------------------------------------------------------
 Center     Atomic                   Forces (Hartrees/Bohr)
 Number     Number              X              Y              Z
 -------------------------------------------------------------------
      1        8          -0.013638179    0.007269876    0.005182270
      2        8           0.013605335    0.007366451   -0.005251832
      3        8           0.018431382    0.000365360   -0.008267051
      4        8          -0.018455365    0.000341937    0.008340835
      5        8           0.012921315   -0.008666198    0.004986481
      6        8          -0.012915897   -0.008659218   -0.005035577
      7        6           0.003182635   -0.012385789   -0.009355765
      8        6          -0.003172701   -0.012496857    0.009330361
      9        6           0.000974901    0.001686401    0.005318299
     10        6          -0.000987192    0.001697459   -0.005318193
     11        6          -0.003952476   -0.003307671   -0.002527809
     12        6           0.003992137   -0.003170707    0.002585383
     13        6           0.000076953    0.002067083    0.000000477
     14        6           0.004887518    0.007599480   -0.012732230
     15        6          -0.004916799    0.007556121    0.012796023
     16        1          -0.000336386    0.003641910    0.004951643
     17        1           0.000340458    0.003651976   -0.004916266
     18        1           0.003454860    0.000713034   -0.002810784
     19        1          -0.003452371    0.000713708    0.002748912
     20        1           0.004625597   -0.001511325    0.004981545
     21        1          -0.000515974   -0.001625102   -0.002719578
     22        1          -0.004620722   -0.001518657   -0.004995476
     23        1           0.000459501   -0.001701206    0.002682355
     24        1           0.002547202   -0.003091389   -0.007806063
     25        1          -0.002569807   -0.003093631    0.007798464
     26        1           0.002560718    0.005201635    0.007181167
     27        1           0.001716581    0.003084381   -0.003632257
     28        1          -0.002559201    0.005225322   -0.007173001
     29        1          -0.001684023    0.003045617    0.003657670
 -------------------------------------------------------------------
 Cartesian Forces:  Max     0.018455365 RMS     0.006451972

 GradGradGradGradGradGradGradGradGradGradGradGradGradGradGradGradGradGrad
 Berny optimization.
 FormGI is forming the generalized inverse of G from B-inverse, IUseBI=4.
 Internal  Forces:  Max     0.019092445 RMS     0.004607496
 Search for a local minimum.
 Step number   1 out of a maximum of  174
 All quantities printed in internal units (Hartrees-Bohrs-Radians)
 Mixed Optimization -- RFO/linear search
 Second derivative matrix not updated -- first step.
 ITU=  0
     Eigenvalues ---    0.00554   0.00753   0.01150   0.01310   0.01776
     Eigenvalues ---    0.02083   0.02177   0.02208   0.03356   0.03475
     Eigenvalues ---    0.03990   0.04102   0.04376   0.04534   0.04951
     Eigenvalues ---    0.05024   0.05445   0.05458   0.05969   0.06070
     Eigenvalues ---    0.06243   0.06863   0.07105   0.07177   0.07358
     Eigenvalues ---    0.07506   0.08168   0.09618   0.09671   0.09679
     Eigenvalues ---    0.10941   0.11354   0.11418   0.11428   0.11648
     Eigenvalues ---    0.11819   0.12040   0.12450   0.12471   0.12880
     Eigenvalues ---    0.13783   0.14243   0.15695   0.16090   0.16595
     Eigenvalues ---    0.18451   0.18654   0.19066   0.20970   0.21194
     Eigenvalues ---    0.24862   0.26289   0.28129   0.28804   0.28814
     Eigenvalues ---    0.33745   0.33751   0.33801   0.33810   0.33953
     Eigenvalues ---    0.33956   0.34009   0.34010   0.34178   0.34196
     Eigenvalues ---    0.34223   0.34227   0.34373   0.34381   0.37826
     Eigenvalues ---    0.37977   0.39198   0.39360   0.39843   0.40065
     Eigenvalues ---    0.40418   0.40521   0.40804   0.41268   0.41269
     Eigenvalues ---    0.42075
 RFO step:  Lambda=-1.43876612D-02 EMin= 5.53577918D-03
 Linear search not attempted -- first point.
 Iteration  1 RMS(Cart)=  0.04184012 RMS(Int)=  0.00053732
 Iteration  2 RMS(Cart)=  0.00059451 RMS(Int)=  0.00026446
 Iteration  3 RMS(Cart)=  0.00000037 RMS(Int)=  0.00026446
 Variable       Old X    -DE/DX   Delta X   Delta X   Delta X     New X
                                 (Linear)    (Quad)   (Total)
    R1        2.71490  -0.00941   0.00000  -0.02399  -0.02403   2.69088
    R2        2.69315  -0.01909   0.00000  -0.04607  -0.04610   2.64704
    R3        2.71519  -0.00948   0.00000  -0.02419  -0.02422   2.69097
    R4        2.69316  -0.01909   0.00000  -0.04606  -0.04609   2.64707
    R5        2.68619  -0.00268   0.00000  -0.00561  -0.00563   2.68056
    R6        2.68909  -0.01614   0.00000  -0.04011  -0.03991   2.64917
    R7        2.68643  -0.00275   0.00000  -0.00578  -0.00580   2.68063
    R8        2.68946  -0.01619   0.00000  -0.04026  -0.04006   2.64940
    R9        2.68996  -0.00611   0.00000  -0.01298  -0.01295   2.67701
   R10        2.69353  -0.01745   0.00000  -0.04155  -0.04161   2.65192
   R11        2.68987  -0.00609   0.00000  -0.01293  -0.01291   2.67696
   R12        2.69342  -0.01744   0.00000  -0.04150  -0.04156   2.65187
   R13        2.90804  -0.01705   0.00000  -0.05215  -0.05237   2.85567
   R14        2.90297  -0.00475   0.00000  -0.01329  -0.01329   2.88968
   R15        2.07752   0.00437   0.00000   0.01243   0.01243   2.08995
   R16        2.90297  -0.00473   0.00000  -0.01328  -0.01327   2.88970
   R17        2.07763   0.00434   0.00000   0.01233   0.01233   2.08996
   R18        2.88904  -0.00348   0.00000  -0.00867  -0.00863   2.88041
   R19        2.07652   0.00304   0.00000   0.00861   0.00861   2.08513
   R20        2.88915  -0.00350   0.00000  -0.00874  -0.00871   2.88044
   R21        2.07668   0.00298   0.00000   0.00845   0.00845   2.08512
   R22        2.07410   0.00446   0.00000   0.01259   0.01259   2.08669
   R23        2.07000  -0.00016   0.00000  -0.00046  -0.00046   2.06954
   R24        2.07405   0.00447   0.00000   0.01263   0.01263   2.08668
   R25        2.07030  -0.00026   0.00000  -0.00074  -0.00074   2.06956
   R26        2.06949   0.00233   0.00000   0.00654   0.00654   2.07602
   R27        2.06955   0.00231   0.00000   0.00647   0.00647   2.07602
   R28        2.07314   0.00609   0.00000   0.01719   0.01719   2.09033
   R29        2.06706  -0.00146   0.00000  -0.00408  -0.00408   2.06298
   R30        2.07316   0.00609   0.00000   0.01718   0.01718   2.09034
   R31        2.06693  -0.00141   0.00000  -0.00393  -0.00393   2.06299
    A1        1.94417  -0.00034   0.00000  -0.01096  -0.01109   1.93308
    A2        1.94386  -0.00030   0.00000  -0.01075  -0.01089   1.93297
    A3        1.98521   0.00408   0.00000   0.00736   0.00720   1.99241
    A4        1.98524   0.00408   0.00000   0.00736   0.00720   1.99244
    A5        1.92650   0.00116   0.00000   0.00212   0.00212   1.92862
    A6        1.92630   0.00118   0.00000   0.00230   0.00230   1.92860
    A7        1.86649   0.00040   0.00000  -0.00017  -0.00010   1.86639
    A8        1.90651   0.00139   0.00000   0.00436   0.00417   1.91068
    A9        1.88429   0.00116   0.00000   0.02958   0.02955   1.91384
   A10        1.99702  -0.00362   0.00000  -0.01949  -0.01965   1.97736
   A11        1.88644   0.00145   0.00000   0.00758   0.00710   1.89354
   A12        1.91942  -0.00052   0.00000  -0.01829  -0.01815   1.90127
   A13        1.86652   0.00040   0.00000  -0.00019  -0.00012   1.86640
   A14        1.90674   0.00139   0.00000   0.00423   0.00403   1.91077
   A15        1.88411   0.00117   0.00000   0.02971   0.02968   1.91379
   A16        1.99726  -0.00363   0.00000  -0.01961  -0.01978   1.97748
   A17        1.88623   0.00146   0.00000   0.00769   0.00721   1.89345
   A18        1.91928  -0.00052   0.00000  -0.01824  -0.01810   1.90118
   A19        1.91619   0.00413   0.00000   0.01201   0.01234   1.92853
   A20        1.87900   0.00045   0.00000  -0.00300  -0.00309   1.87592
   A21        1.95359  -0.00223   0.00000  -0.00674  -0.00699   1.94661
   A22        1.91118  -0.00647   0.00000  -0.02766  -0.02774   1.88344
   A23        1.92254   0.00030   0.00000  -0.00141  -0.00130   1.92124
   A24        1.88018   0.00360   0.00000   0.02614   0.02618   1.90636
   A25        1.91591   0.00415   0.00000   0.01216   0.01250   1.92841
   A26        1.87880   0.00043   0.00000  -0.00302  -0.00310   1.87569
   A27        1.95376  -0.00224   0.00000  -0.00695  -0.00719   1.94657
   A28        1.91117  -0.00646   0.00000  -0.02757  -0.02765   1.88352
   A29        1.92268   0.00030   0.00000  -0.00139  -0.00128   1.92141
   A30        1.88035   0.00360   0.00000   0.02609   0.02613   1.90648
   A31        1.92695  -0.00061   0.00000  -0.00364  -0.00368   1.92327
   A32        1.91605   0.00254   0.00000   0.01351   0.01333   1.92938
   A33        1.89296  -0.00126   0.00000  -0.01326  -0.01329   1.87967
   A34        1.94733  -0.00423   0.00000  -0.03166  -0.03163   1.91570
   A35        1.92203   0.00102   0.00000   0.00773   0.00775   1.92978
   A36        1.85657   0.00273   0.00000   0.02881   0.02892   1.88549
   A37        1.92716  -0.00064   0.00000  -0.00375  -0.00379   1.92337
   A38        1.91615   0.00255   0.00000   0.01349   0.01331   1.92946
   A39        1.89291  -0.00126   0.00000  -0.01322  -0.01325   1.87966
   A40        1.94720  -0.00422   0.00000  -0.03163  -0.03160   1.91560
   A41        1.92195   0.00103   0.00000   0.00777   0.00779   1.92974
   A42        1.85651   0.00273   0.00000   0.02883   0.02894   1.88545
   A43        2.03794  -0.00787   0.00000  -0.06121  -0.06112   1.97682
   A44        1.89471   0.00722   0.00000   0.04316   0.04191   1.93662
   A45        1.88077  -0.00542   0.00000  -0.03614  -0.03633   1.84445
   A46        1.88064  -0.00541   0.00000  -0.03614  -0.03633   1.84430
   A47        1.89444   0.00724   0.00000   0.04334   0.04211   1.93655
   A48        1.86879   0.00541   0.00000   0.05786   0.05793   1.92671
   A49        1.96663   0.00363   0.00000  -0.00236  -0.00252   1.96411
   A50        1.92867  -0.00274   0.00000  -0.01612  -0.01633   1.91235
   A51        1.87825  -0.00203   0.00000  -0.00776  -0.00776   1.87049
   A52        1.92969  -0.00266   0.00000  -0.01661  -0.01683   1.91286
   A53        1.87837  -0.00185   0.00000  -0.00531  -0.00531   1.87306
   A54        1.87866   0.00586   0.00000   0.05171   0.05177   1.93043
   A55        1.96645   0.00362   0.00000  -0.00229  -0.00245   1.96400
   A56        1.92873  -0.00274   0.00000  -0.01622  -0.01643   1.91230
   A57        1.87813  -0.00200   0.00000  -0.00756  -0.00756   1.87057
   A58        1.92993  -0.00268   0.00000  -0.01684  -0.01707   1.91286
   A59        1.87844  -0.00184   0.00000  -0.00527  -0.00527   1.87317
   A60        1.87859   0.00586   0.00000   0.05175   0.05181   1.93040
    D1        3.13285   0.00065   0.00000  -0.01136  -0.01137   3.12149
    D2       -0.98027  -0.00267   0.00000  -0.03261  -0.03287  -1.01314
    D3        1.10658  -0.00183   0.00000  -0.03482  -0.03481   1.07177
    D4        1.06433   0.00053   0.00000   0.01887   0.01887   1.08320
    D5       -1.10412   0.00342   0.00000   0.05462   0.05447  -1.04965
    D6        3.13231  -0.00092   0.00000   0.00591   0.00594   3.13825
    D7        3.13240   0.00066   0.00000  -0.01108  -0.01109   3.12131
    D8       -0.98028  -0.00267   0.00000  -0.03258  -0.03284  -1.01312
    D9        1.10644  -0.00182   0.00000  -0.03472  -0.03472   1.07172
   D10        1.06504   0.00051   0.00000   0.01849   0.01849   1.08353
   D11       -1.10363   0.00344   0.00000   0.05458   0.05442  -1.04921
   D12        3.13292  -0.00093   0.00000   0.00575   0.00578   3.13870
   D13        1.61682   0.00479   0.00000   0.05635   0.05655   1.67337
   D14       -2.58704  -0.00040   0.00000   0.02807   0.02827  -2.55878
   D15       -0.52395   0.00300   0.00000   0.05426   0.05429  -0.46966
   D16       -0.77690   0.00131   0.00000  -0.00919  -0.00847  -0.78537
   D17        1.35199  -0.00564   0.00000  -0.06592  -0.06643   1.28555
   D18       -2.91287   0.00159   0.00000   0.00531   0.00397  -2.90891
   D19        1.61647   0.00480   0.00000   0.05642   0.05663   1.67309
   D20       -2.58768  -0.00038   0.00000   0.02834   0.02853  -2.55915
   D21       -0.52441   0.00301   0.00000   0.05433   0.05437  -0.47004
   D22       -0.77555   0.00131   0.00000  -0.00947  -0.00875  -0.78429
   D23       -2.91176   0.00160   0.00000   0.00528   0.00394  -2.90783
   D24        1.35331  -0.00565   0.00000  -0.06604  -0.06655   1.28676
   D25        0.99979  -0.00016   0.00000   0.01066   0.01062   1.01041
   D26       -1.15423   0.00386   0.00000   0.04389   0.04397  -1.11026
   D27        3.10715  -0.00008   0.00000   0.00956   0.00959   3.11673
   D28       -1.06440  -0.00001   0.00000  -0.01292  -0.01296  -1.07736
   D29        1.10350  -0.00294   0.00000  -0.04842  -0.04830   1.05520
   D30       -3.13231   0.00155   0.00000   0.00147   0.00143  -3.13089
   D31        0.99995  -0.00017   0.00000   0.01045   0.01041   1.01036
   D32       -1.15412   0.00385   0.00000   0.04373   0.04381  -1.11031
   D33        3.10730  -0.00009   0.00000   0.00936   0.00939   3.11669
   D34       -1.06525   0.00003   0.00000  -0.01242  -0.01246  -1.07771
   D35        1.10276  -0.00294   0.00000  -0.04818  -0.04805   1.05471
   D36       -3.13295   0.00155   0.00000   0.00166   0.00162  -3.13134
   D37       -1.21161  -0.00143   0.00000  -0.03866  -0.03860  -1.25021
   D38        2.95750  -0.00119   0.00000  -0.03151  -0.03132   2.92618
   D39        0.81294   0.00086   0.00000  -0.00034  -0.00023   0.81271
   D40        2.95797  -0.00120   0.00000  -0.03178  -0.03159   2.92637
   D41        0.84390  -0.00096   0.00000  -0.02464  -0.02431   0.81958
   D42       -1.30067   0.00109   0.00000   0.00654   0.00677  -1.29389
   D43        0.81323   0.00085   0.00000  -0.00053  -0.00043   0.81280
   D44       -1.30084   0.00109   0.00000   0.00662   0.00685  -1.29399
   D45        2.83778   0.00314   0.00000   0.03779   0.03794   2.87572
   D46        2.98373   0.00089   0.00000   0.00925   0.00926   2.99298
   D47        0.92427   0.00175   0.00000   0.02226   0.02230   0.94657
   D48       -1.14042   0.00110   0.00000   0.00796   0.00797  -1.13245
   D49       -1.20808   0.00002   0.00000  -0.00072  -0.00078  -1.20886
   D50        3.01565   0.00088   0.00000   0.01229   0.01227   3.02791
   D51        0.95096   0.00022   0.00000  -0.00201  -0.00207   0.94889
   D52        0.91871  -0.00105   0.00000  -0.01856  -0.01837   0.90035
   D53       -1.14075  -0.00019   0.00000  -0.00555  -0.00532  -1.14607
   D54        3.07775  -0.00085   0.00000  -0.01985  -0.01965   3.05810
   D55        2.98266   0.00090   0.00000   0.00964   0.00965   2.99231
   D56        0.92362   0.00176   0.00000   0.02253   0.02257   0.94619
   D57       -1.14136   0.00110   0.00000   0.00822   0.00822  -1.13313
   D58       -1.20878   0.00002   0.00000  -0.00055  -0.00061  -1.20938
   D59        3.01536   0.00088   0.00000   0.01234   0.01231   3.02768
   D60        0.95039   0.00022   0.00000  -0.00197  -0.00203   0.94836
   D61        0.91780  -0.00105   0.00000  -0.01828  -0.01808   0.89972
   D62       -1.14124  -0.00019   0.00000  -0.00539  -0.00516  -1.14640
   D63        3.07697  -0.00084   0.00000  -0.01970  -0.01950   3.05747
   D64       -3.02787  -0.00097   0.00000  -0.00279  -0.00316  -3.03102
   D65       -0.89210  -0.00108   0.00000  -0.00997  -0.01014  -0.90224
   D66        1.16541   0.00034   0.00000   0.01105   0.01076   1.17618
   D67       -0.94535   0.00061   0.00000  -0.00572  -0.00552  -0.95087
   D68        1.19042   0.00050   0.00000  -0.01290  -0.01250   1.17792
   D69       -3.03525   0.00192   0.00000   0.00813   0.00840  -3.02686
   D70        1.14551  -0.00059   0.00000  -0.00776  -0.00792   1.13759
   D71       -3.00191  -0.00070   0.00000  -0.01494  -0.01490  -3.01681
   D72       -0.94439   0.00071   0.00000   0.00608   0.00599  -0.93840
   D73       -3.02683  -0.00099   0.00000  -0.00320  -0.00357  -3.03039
   D74       -0.89088  -0.00110   0.00000  -0.01046  -0.01063  -0.90150
   D75        1.16644   0.00032   0.00000   0.01063   0.01034   1.17678
   D76       -0.94476   0.00061   0.00000  -0.00589  -0.00570  -0.95046
   D77        1.19119   0.00050   0.00000  -0.01315  -0.01276   1.17843
   D78       -3.03468   0.00192   0.00000   0.00794   0.00821  -3.02647
   D79        1.14637  -0.00059   0.00000  -0.00789  -0.00805   1.13832
   D80       -3.00087  -0.00070   0.00000  -0.01515  -0.01511  -3.01597
   D81       -0.94355   0.00072   0.00000   0.00595   0.00586  -0.93769
         Item               Value     Threshold  Converged?
 Maximum Force            0.019092     0.000450     NO 
 RMS     Force            0.004607     0.000300     NO 
 Maximum Displacement     0.188366     0.001800     NO 
 RMS     Displacement     0.042136     0.001200     NO 
 Predicted change in Energy=-7.936957D-03
 GradGradGradGradGradGradGradGradGradGradGradGradGradGradGradGradGradGrad

                          Input orientation:                          
 ---------------------------------------------------------------------
 Center     Atomic      Atomic             Coordinates (Angstroms)
 Number     Number       Type             X           Y           Z
 ---------------------------------------------------------------------
      1          8           0       -1.362433   -1.635063   -0.386101
      2          8           0        1.362497   -1.635148    0.385806
      3          8           0       -0.964436    1.841761    0.663636
      4          8           0        0.964644    1.841756   -0.663802
      5          8           0       -3.450075   -0.597103   -0.335413
      6          8           0        3.450024   -0.597153    0.335438
      7          6           0       -0.716795   -0.530552    0.239071
      8          6           0        0.716750   -0.530417   -0.238982
      9          6           0       -1.467561    0.757646   -0.100353
     10          6           0        1.467500    0.757758    0.100595
     11          6           0       -2.929169    0.564242    0.286459
     12          6           0        2.929205    0.564448   -0.285968
     13          6           0       -0.000187    2.612851   -0.000382
     14          6           0       -2.698590   -1.726347    0.024342
     15          6           0        2.698589   -1.726198   -0.024947
     16          1           0       -0.720671   -0.669719    1.336227
     17          1           0        0.720537   -0.669292   -1.336181
     18          1           0       -1.401969    0.960278   -1.183005
     19          1           0        1.401598    0.960673    1.183171
     20          1           0       -3.017922    0.488765    1.384526
     21          1           0       -3.530864    1.417382   -0.044415
     22          1           0        3.018121    0.489573   -1.384056
     23          1           0        3.530832    1.417450    0.045420
     24          1           0       -0.463244    3.239375   -0.774935
     25          1           0        0.462555    3.240397    0.773526
     26          1           0       -2.740639   -1.866111    1.120827
     27          1           0       -3.135641   -2.584723   -0.489415
     28          1           0        2.740381   -1.865159   -1.121545
     29          1           0        3.135762   -2.584969    0.488058
 ---------------------------------------------------------------------
                    Distance matrix (angstroms):
                    1          2          3          4          5
     1  O    0.000000
     2  O    2.832152   0.000000
     3  O    3.653582   4.192934   0.000000
     4  O    4.192932   3.653604   2.341675   0.000000
     5  O    2.331990   4.975795   3.622783   5.054267   0.000000
     6  O    4.975703   2.331896   5.054055   3.622688   6.932634
     7  C    1.423950   2.359049   2.422695   3.044710   2.793793
     8  C    2.359002   1.424000   3.044394   2.422628   4.168475
     9  C    2.412004   3.737785   1.418492   2.721836   2.412667
    10  C    3.737779   2.412129   2.721469   1.418527   5.119404
    11  C    2.782794   4.823440   2.373709   4.206759   1.416612
    12  C    4.823488   2.782818   4.206390   2.373557   6.484355
    13  C    4.477641   4.477894   1.401883   1.402003   4.724170
    14  C    1.400754   4.078161   4.018380   5.159863   1.403334
    15  C    4.078069   1.400768   5.159673   4.018083   6.259179
    16  H    2.076093   2.484943   2.611385   3.626005   3.201453
    17  H    2.484780   2.076109   3.625436   2.610946   4.289610
    18  H    2.715220   4.103617   2.092493   2.578262   2.708982
    19  H    4.103698   2.715807   2.577664   2.092497   5.317095
    20  H    3.222796   4.969559   2.562633   4.678362   2.079436
    21  H    3.759822   5.783425   2.695920   4.557777   2.036997
    22  H    4.969834   3.223033   4.677843   2.562017   6.642144
    23  H    5.783433   3.759773   4.557375   2.695988   7.275749
    24  H    4.971909   5.333068   2.067366   2.001139   4.881895
    25  H    5.333426   4.973043   2.001140   2.067415   5.591496
    26  H    2.055156   4.174843   4.136694   5.537354   2.057745
    27  H    2.014148   4.679845   5.063341   6.036263   2.018222
    28  H    4.174554   2.055134   5.536587   4.135696   6.367708
    29  H    4.679769   2.014222   6.036423   5.063243   6.928418
                    6          7          8          9         10
     6  O    0.000000
     7  C    4.168465   0.000000
     8  C    2.793778   1.511154   0.000000
     9  C    5.119379   1.529155   2.539595   0.000000
    10  C    2.412744   2.539698   1.529161   2.941932   0.000000
    11  C    6.484238   2.468890   3.842798   1.524246   4.404849
[...]
 0184092,0.00291220,-0.00110817,-0.00012457,0.00001191,0.00011508,0.000
 16061,0.00022400,0.00007058,0.00000679,0.00003635,-0.00001213,0.001197
 44,0.00013873,0.00031734,0.00001216,-0.00000854,0.00000999,-0.00004997
 ,0.00000996,-0.00000055,0.00242509,0.00261982,0.00181442,0.14629726,0.
 00011412,0.00007003,-0.00003012,-0.00150582,0.00022519,-0.00006154,-0.
 00002491,0.00001724,0.00004547,-0.00137942,0.00161839,-0.00039774,-0.0
 0002990,0.00002734,-0.00000185,-0.01426142,-0.03339220,-0.00654349,0.0
 0008191,0.00036934,0.00003921,0.00220541,0.00003843,0.00040409,-0.0000
 8468,-0.00002421,-0.00000041,0.00266159,0.00462360,0.00156626,0.000004
 13,0.00001305,-0.00001398,-0.11303567,-0.19599226,-0.06433583,-0.00005
 303,-0.00013990,-0.00024487,0.00009032,0.00002254,0.00001481,0.0057206
 0,-0.00137861,0.00385205,0.00001092,-0.00001818,-0.00001742,0.00003625
 ,0.00000027,-0.00005075,-0.00001404,0.00000399,0.00000553,-0.00049880,
 0.00042012,0.00024780,0.00000116,-0.00000301,0.00000380,-0.00000997,0.
 00000115,0.,-0.00182209,-0.00035022,-0.00115066,0.12270851,0.22486960,
 0.00025106,0.00007861,-0.00007414,0.00012604,-0.00008876,-0.00000352,0
 .00006581,0.00006522,-0.00006759,-0.00080632,0.00005113,-0.00034272,-0
 .00000102,-0.00000757,-0.00000329,0.00894021,0.01757623,0.00506388,0.0
 0001704,0.00027264,0.00060693,0.00158399,-0.00123959,-0.00042859,-0.00
 003935,-0.00000630,-0.00001543,0.00866998,0.00858547,0.00347846,-0.000
 00423,0.00000400,0.00002189,-0.05220637,-0.07283152,-0.07996890,-0.000
 11695,0.00013272,0.00013515,0.00000957,0.00004858,0.00002671,-0.001631
 30,0.00130121,-0.00144229,-0.00008588,-0.00000462,0.00000568,0.0002843
 2,0.00037464,0.00033430,0.00001412,-0.00000572,0.00000333,-0.00041374,
 0.00057645,0.00037380,0.00000185,0.00000053,-0.00000410,-0.00000055,0.
 ,-0.00000508,-0.01741497,-0.02281851,-0.00785847,0.05239862,0.06698958
 ,0.07924608,0.00026938,-0.00037846,-0.00012338,0.00026113,0.00048634,0
 .00001891,0.00365964,-0.02264664,0.02393876,-0.01575630,0.02431202,-0.
 01354226,0.00001403,-0.00001867,-0.00009298,-0.00062869,0.00058277,0.0
 0009759,-0.00043676,-0.00022138,-0.00038479,-0.00072652,-0.00019952,-0
 .00023616,0.00243419,0.00232561,0.00367614,-0.00210557,-0.00023750,0.0
 0358969,0.00008790,0.00012687,0.00034467,0.00055838,0.00074792,-0.0006
 4984,-0.09392051,0.05469589,-0.08288173,-0.00000644,0.00009889,-0.0000
 0013,-0.00009178,-0.00040747,-0.00018240,-0.00008237,0.00009625,-0.000
 16158,0.00005973,0.00005729,0.00004164,0.00017459,0.00076160,-0.000992
 73,0.00015192,-0.00033346,0.00010265,0.00003058,0.00004661,-0.00006929
 ,-0.00005386,-0.00000468,-0.00000613,-0.00004068,0.00004123,0.00008791
 ,-0.00000804,-0.00002714,-0.00004609,0.10857985,-0.00019189,-0.0003666
 8,-0.00007164,-0.00010916,-0.00025148,-0.00006209,-0.00284942,-0.01177
 475,0.01844918,0.01981996,-0.02000493,0.01154049,-0.00011964,0.0000597
 8,-0.00011142,0.00062532,-0.00049173,-0.00006444,0.00007761,-0.0001528
 9,-0.00047854,0.00011540,0.00034296,0.00031936,0.00202644,0.00217426,0
 .00319682,0.00323782,0.00172737,-0.00276193,0.00003854,-0.00002777,0.0
 0000899,-0.00045482,-0.00080684,0.00081602,0.05160098,-0.12338998,0.08
 890815,0.00021431,-0.00005906,-0.00001388,0.00007866,0.00027604,0.0001
 3097,-0.00010491,0.00017520,-0.00013611,0.00003368,0.00001781,-0.00003
 764,-0.00005523,-0.00039311,-0.00101814,-0.00000952,-0.00031533,0.0001
 4105,0.00010534,0.00007117,-0.00011198,-0.00008749,0.00000827,0.000011
 72,-0.00001299,0.00000208,-0.00004226,0.00005155,0.00002293,-0.0000092
 3,-0.06696880,0.14166737,0.00002921,0.00053684,0.00013494,-0.00034032,
 -0.00014001,0.00000911,0.00699503,0.01361083,-0.01077616,0.01065671,-0
 .01421351,0.01311324,0.00036623,0.00021941,0.00003257,0.00032501,-0.00
 027575,-0.00003071,0.00029480,-0.00008641,0.00016799,0.00051675,-0.000
 00425,0.00024423,-0.00074260,-0.00225834,-0.00041658,0.00259989,-0.001
 73755,-0.00082125,-0.00043980,0.00021257,0.00031065,-0.00018216,-0.000
 50882,0.00054402,-0.08828568,0.09995667,-0.18425917,-0.00017830,-0.000
 13023,0.00005760,0.00018601,0.00015596,-0.00000347,0.00004407,-0.00020
 241,0.00002759,-0.00001410,0.00005991,0.00000815,0.00049556,0.00100569
 ,0.00035862,0.00029101,-0.00034772,0.00024651,-0.00010928,-0.00005626,
 0.00002690,0.00009362,-0.00001752,0.00000355,-0.00003406,0.00001325,-0
 .00000307,0.00002550,0.00000697,-0.00001961,0.07676981,-0.10718199,0.1
 9351272,0.00026114,-0.00048642,0.00001884,0.00026936,0.00037862,-0.000
 12335,-0.01575051,-0.02430965,-0.01354248,0.00365502,0.02264819,0.0239
 4095,-0.00062849,-0.00058264,0.00009748,0.00001396,0.00001872,-0.00009
 299,-0.00072675,0.00019931,-0.00023619,-0.00043689,0.00022148,-0.00038
 492,-0.00210389,0.00023529,0.00358988,0.00243457,-0.00232602,0.0036764
 9,0.00055842,-0.00074759,-0.00064962,0.00008797,-0.00012683,0.00034452
 ,-0.09390393,-0.05469348,-0.08286781,-0.00009171,0.00040742,-0.0001823
 4,-0.00000641,-0.00009891,-0.00000015,0.00005974,-0.00005730,0.0000416
 3,-0.00008238,-0.00009630,-0.00016158,0.00015194,0.00033357,0.00010286
 ,0.00017462,-0.00076150,-0.00099301,-0.00004070,-0.00004124,0.00008789
 ,-0.00000805,0.00002715,-0.00004609,0.00003062,-0.00004661,-0.00006931
 ,-0.00005388,0.00000468,-0.00000613,-0.00245585,-0.00700947,-0.0093451
 4,0.10856005,0.00010918,-0.00025159,0.00006207,0.00019191,-0.00036664,
 0.00007157,-0.01981954,-0.02001152,-0.01154419,0.00285147,-0.01176868,
 -0.01844382,-0.00062538,-0.00049179,0.00006437,0.00011967,0.00005974,0
 .00011141,-0.00011554,0.00034297,-0.00031943,-0.00007760,-0.00015290,0
 .00047843,-0.00323787,0.00172664,0.00276324,-0.00202607,0.00217381,-0.
 00319572,0.00045498,-0.00080685,-0.00081616,-0.00003856,-0.00002776,-0
 .00000893,-0.05159949,-0.12341031,-0.08892339,-0.00007864,0.00027608,-
 0.00013097,-0.00021429,-0.00005904,0.00001389,-0.00003368,0.00001782,0
 .00003763,0.00010487,0.00017517,0.00013608,0.00000960,-0.00031522,-0.0
 0014115,0.00005520,-0.00039294,0.00101789,0.00001299,0.00000208,0.0000
 4227,-0.00005158,0.00002293,0.00000923,-0.00010533,0.00007113,0.000111
 98,0.00008748,0.00000827,-0.00001172,0.00700743,0.01152953,0.01139255,
 0.06696653,0.14168930,-0.00034036,0.00014006,0.00000912,0.00002925,-0.
 00053689,0.00013489,0.01065490,0.01421485,0.01311377,0.00699782,-0.013
 60712,-0.01077309,0.00032497,0.00027575,-0.00003066,0.00036619,-0.0002
 1938,0.00003256,0.00051684,0.00000432,0.00024436,0.00029486,0.00008629
 ,0.00016800,0.00259930,0.00173824,-0.00082135,-0.00074316,0.00225747,-
 0.00041698,-0.00018219,0.00050871,0.00054405,-0.00043975,-0.00021253,0
 .00031051,-0.08827228,-0.09997325,-0.18426143,0.00018600,-0.00015594,-
 0.00000348,-0.00017832,0.00013022,0.00005762,-0.00001408,-0.00005993,0
 .00000815,0.00004404,0.00020237,0.00002761,0.00029097,0.00034770,0.000
 24663,0.00049562,-0.00100577,0.00035836,-0.00003407,-0.00001326,-0.000
 00307,0.00002551,-0.00000696,-0.00001962,-0.00010928,0.00005624,0.0000
 2691,0.00009358,0.00001752,0.00000356,-0.00934373,-0.01139412,-0.01245
 214,0.07675513,0.10719553,0.19351198,-0.02228748,-0.00716280,0.0403643
 4,-0.00008633,0.00000897,-0.00010691,0.00045484,-0.00024172,-0.0001279
 5,0.00012334,-0.00011010,-0.00001948,-0.00204433,0.01577311,-0.0224841
 3,-0.00004636,-0.00004479,-0.00002230,0.00314583,0.00422899,0.00560480
 ,-0.00024919,-0.00000136,0.00002838,-0.00057376,0.00019043,-0.00010736
 ,-0.00011828,0.00017224,-0.00015086,-0.00110815,-0.00305816,-0.0014788
 6,0.00001588,-0.00003666,-0.00001091,-0.00011329,0.00004586,0.00008470
 ,-0.04506194,-0.00753072,-0.00163625,0.00015671,0.00003052,0.00000357,
 -0.00004728,-0.00019712,-0.00166600,0.00012535,-0.00002612,-0.00029578
 ,-0.00013767,0.00012448,-0.00004618,-0.00004044,-0.00006882,-0.0000203
 0,0.00032583,0.00002923,0.00109238,-0.00001855,-0.00000366,0.00017602,
 0.00000681,0.00000519,-0.00000168,-0.00002357,-0.00000223,0.00000458,0
 .00000461,-0.00001017,0.00000273,0.00001480,0.00000972,-0.00000943,0.0
 6465343,-0.00142483,0.00536211,0.00287998,0.00007031,-0.00004913,0.000
 01057,-0.00026820,0.00000650,-0.00007025,-0.00002762,0.00005132,-0.000
 01124,0.01101368,-0.01699371,0.03339495,0.00001454,-0.00000415,0.00000
 960,0.00008233,-0.00012265,0.00225689,-0.00016162,0.00009329,0.0000469
 3,0.00017997,-0.00032957,-0.00032607,0.00003592,-0.00006601,0.00000041
 ,0.00114646,0.00389517,0.00564388,-0.00000439,0.00003516,-0.00000915,-
 0.00000132,-0.00004935,-0.00007156,-0.00794324,-0.05772207,0.00761082,
 -0.00004499,0.00000290,-0.00001245,-0.00015641,0.00011795,-0.00002343,
 -0.00002489,-0.00005766,-0.00006361,0.00012677,0.00005072,-0.00011314,
 -0.00000572,-0.00001371,-0.00000765,-0.00005972,0.00006967,-0.00148974
 ,0.00002734,0.00013362,-0.00043825,0.00000205,-0.00000161,-0.00000078,
 0.00001068,-0.00000089,0.00000314,0.00000721,0.00001137,-0.00000329,-0
 .00001505,-0.00001560,0.00001452,-0.00344828,0.06051591,0.01442619,0.0
 0079816,-0.01310082,0.00023519,-0.00013860,0.00008075,0.00031104,0.000
 55744,0.00012381,0.00010353,-0.00000304,0.00000984,-0.00847191,0.01091
 829,-0.01098811,0.00007487,-0.00002708,0.00004696,-0.00247311,-0.00176
 246,0.00071125,-0.00007752,0.00019257,0.00061242,-0.00001037,-0.000010
 01,-0.00001095,0.00009655,-0.00006993,-0.00001311,0.00021784,-0.002527
 98,0.00125091,-0.00004239,0.00009671,-0.00001031,-0.00017479,-0.000130
 10,0.00011319,0.00243977,0.01505299,-0.27752552,-0.00013375,0.00000558
 ,-0.00000042,0.00107064,0.00138885,0.00072066,-0.00038821,-0.00008979,
 0.00009876,-0.00012887,-0.00023155,-0.00007104,0.00001822,0.00003650,0
 .00000380,0.00052455,0.00166920,0.00058994,-0.00002613,0.00010137,0.00
 047871,-0.00000063,-0.00000509,0.00000314,0.00002717,0.00000132,-0.000
 00699,0.00000399,-0.00000002,-0.00002008,0.00004422,0.00003216,0.00000
 391,-0.00805233,-0.02717059,0.30722331,-0.02598583,-0.02997097,-0.0149
 4734,-0.00011484,0.00026252,0.00001171,0.00049519,-0.00032804,-0.00007
 736,0.00018994,-0.00014262,0.00001289,0.00734068,0.02092481,0.00877386
 ,-0.00004758,0.00006240,0.00001359,-0.00388173,0.00176695,0.00417942,-
 0.00007687,-0.00194193,-0.00081064,-0.00094197,0.00066885,-0.00002867,
 -0.00068433,0.00046866,0.00022153,-0.00124579,0.00284166,-0.00192066,0
 .00001111,-0.00032817,-0.00008466,-0.00010698,0.00012040,0.00009847,-0
 .08756094,-0.08577139,-0.04911265,0.00019028,-0.00007241,-0.00010838,0
 .00005086,0.00013185,-0.00011126,0.00002988,0.00002421,0.00005321,0.00
 003322,-0.00003431,0.00000948,0.00002850,0.00000235,-0.00000138,-0.000
 08542,-0.00013955,-0.00005449,0.00045074,0.00090743,0.00021145,-0.0000
 0031,0.00001107,0.00000964,-0.00010134,0.00001325,0.00001841,0.0000041
 2,-0.00002530,0.00001036,0.00000853,0.00000707,-0.00002142,0.00293557,
 0.00085079,0.00036564,0.10912260,-0.00441485,-0.00030367,-0.00085018,-
 0.00011317,0.00009233,0.00003044,-0.00044252,-0.00013045,0.00004600,-0
 .00016058,0.00004634,0.00003140,-0.00533616,-0.03261053,-0.01265052,-0
 .00003672,0.00003628,0.00000172,0.00038282,0.00215438,0.00056095,0.000
 10467,-0.00011992,-0.00021187,0.00068941,0.00013785,-0.00012593,-0.000
 00718,-0.00000564,0.00007407,0.00412550,-0.00112573,0.00326242,0.00003
 439,-0.00005045,-0.00001323,0.00022013,0.00011697,-0.00017463,-0.08538
 802,-0.21385874,-0.09672955,0.00006010,-0.00001726,-0.00005518,-0.0000
 2461,-0.00009917,-0.00017125,0.00000829,0.00000175,0.00000348,-0.00002
 475,-0.00000943,-0.00000288,0.00000826,0.00000461,0.00000383,0.0000156
 5,0.00007572,-0.00019167,-0.00065884,-0.00118627,-0.00052267,-0.000004
 17,0.00000329,0.00000456,-0.00000805,0.00000074,0.00000266,0.00000094,
 -0.00000554,0.00001585,-0.00003378,-0.00003048,0.00000792,0.00132814,0
 .00508882,0.00132666,0.08968979,0.24179222,0.00809324,0.01150959,0.007
 46587,-0.00009069,0.00005151,-0.00003307,-0.00000276,0.00001935,0.0000
 3738,-0.00002774,-0.00002491,0.00000861,0.00404965,0.01203755,0.006916
 48,-0.00003277,-0.00000540,-0.00000779,0.00162180,0.00011159,-0.000122
 76,0.00030440,0.00027686,0.00060142,0.00007565,0.00015307,0.00009863,0
 .00017039,-0.00001957,-0.00006518,-0.00078654,0.00145265,0.00019734,0.
 00001757,0.00003869,0.00001076,0.00005196,0.00003888,0.00000420,-0.055
 96443,-0.11083898,-0.12045067,0.00006956,-0.00000886,0.00000630,0.0002
 3301,0.00032795,0.00054766,-0.00010892,0.00000488,-0.00000227,-0.00001
 041,-0.00000678,0.00002799,-0.00000323,-0.00001156,-0.00000628,0.00013
 075,0.00039251,0.00052709,0.00005336,0.00024127,0.00046906,0.00000566,
 0.00000045,-0.00000419,0.00000938,-0.00000291,-0.00000686,-0.00000168,
 0.00000570,0.00000671,-0.00000110,0.00000084,-0.00000677,-0.01110998,-
 0.02206130,-0.01033720,0.05326766,0.10631690,0.11412436,-0.00008631,-0
 .00000896,-0.00010692,-0.02228736,0.00715731,0.04036542,0.00012333,0.0
 0011010,-0.00001948,0.00045482,0.00024175,-0.00012795,-0.00004636,0.00
 004479,-0.00002230,-0.00204312,-0.01577038,-0.02248364,-0.00024919,0.0
 0000132,0.00002839,0.00314621,-0.00422934,0.00560453,-0.00011827,-0.00
 017222,-0.00015086,-0.00057371,-0.00019045,-0.00010739,0.00001587,0.00
 003667,-0.00001091,-0.00110836,0.00305806,-0.00147810,-0.00011328,-0.0
 0004588,0.00008471,0.00015670,-0.00003051,0.00000356,-0.04506269,0.007
 53153,-0.00163929,0.00012534,0.00002616,-0.00029578,-0.00004728,0.0001
 9725,-0.00166601,-0.00004044,0.00006881,-0.00002030,-0.00013765,-0.000
 12448,-0.00004620,0.00000681,-0.00000519,-0.00000168,-0.00002357,0.000
 00223,0.00000458,0.00032585,-0.00002935,0.00109229,-0.00001854,0.00000
 362,0.00017600,0.00001480,-0.00000972,-0.00000943,0.00000461,0.0000101
 7,0.00000273,0.00000956,0.00000508,-0.00001116,-0.00001592,-0.00000092
 ,-0.00000365,0.06465265,-0.00007033,-0.00004915,-0.00001060,0.00142169
 ,0.00536298,-0.00287570,0.00002761,0.00005133,0.00001124,0.00026820,0.
 00000658,0.00007022,-0.00001455,-0.00000415,-0.00000961,-0.01101241,-0
 .01699134,-0.03339700,0.00016160,0.00009334,-0.00004697,-0.00008198,-0
 .00012284,-0.00225661,-0.00003593,-0.00006602,-0.00000043,-0.00017997,
 -0.00032965,0.00032603,0.00000440,0.00003517,0.00000915,-0.00114699,0.
 00389571,-0.00564363,0.00000133,-0.00004938,0.00007156,0.00004501,0.00
 000290,0.00001245,0.00794363,-0.05771919,-0.00759104,0.00002494,-0.000
 05768,0.00006358,0.00015626,0.00011809,0.00002327,0.00000572,-0.000013
 71,0.00000765,-0.00012676,0.00005067,0.00011316,-0.00000205,-0.0000016
 1,0.00000078,-0.00001069,-0.00000089,-0.00000314,0.00005976,0.00006969
 ,0.00148979,-0.00002734,0.00013357,0.00043823,0.00001506,-0.00001560,-
 0.00001452,-0.00000721,0.00001137,0.00000329,-0.00000508,-0.00000481,-
 0.00000004,-0.00001315,-0.00000362,-0.00000076,0.00344983,0.06051146,0
 .00023516,0.00013862,0.00008077,0.01442659,-0.00079559,-0.01310215,0.0
 0010354,0.00000305,0.00000985,0.00031112,-0.00055744,0.00012378,0.0000
 7486,0.00002708,0.00004696,-0.00847250,-0.01091938,-0.01099160,-0.0000
 7748,-0.00019263,0.00061239,-0.00247327,0.00176226,0.00071115,0.000096
 55,0.00006992,-0.00001310,-0.00001038,0.00000999,-0.00001089,-0.000042
 39,-0.00009672,-0.00001032,0.00021756,0.00252820,0.00125062,-0.0001748
 2,0.00013008,0.00011320,-0.00013374,-0.00000559,-0.00000041,0.00243735
 ,-0.01503277,-0.27752767,-0.00038822,0.00008974,0.00009878,0.00107076,
 -0.00138887,0.00072053,0.00001823,-0.00003650,0.00000379,-0.00012890,0
 .00023156,-0.00007100,-0.00000063,0.00000509,0.00000314,0.00002717,-0.
 00000131,-0.00000699,0.00052471,-0.00166924,0.00058986,-0.00002611,-0.
 00010142,0.00047872,0.00004422,-0.00003216,0.00000390,0.00000400,0.000
 00002,-0.00002008,-0.00001116,0.00000004,0.00001285,0.00003173,0.00001
 151,0.00000033,-0.00804942,0.02714768,0.30722871,-0.00011483,-0.000262
 53,0.00001168,-0.02598828,0.02997048,-0.01494407,0.00018991,0.00014261
 ,0.00001288,0.00049514,0.00032810,-0.00007734,-0.00004758,-0.00006241,
 0.00001358,0.00734212,-0.02092320,0.00877105,-0.00007702,0.00194198,-0
 .00081040,-0.00388144,-0.00176773,0.00417927,-0.00068430,-0.00046870,0
 .00022148,-0.00094188,-0.00066894,-0.00002875,0.00001110,0.00032818,-0
 .00008462,-0.00124545,-0.00284144,-0.00192065,-0.00010694,-0.00012043,
 0.00009846,0.00019028,0.00007244,-0.00010837,-0.08757358,0.08578550,-0
 .04911154,0.00002988,-0.00002421,0.00005321,0.00005087,-0.00013184,-0.
 00011126,0.00002851,-0.00000236,-0.00000137,0.00003322,0.00003432,0.00
 000949,-0.00000031,-0.00001107,0.00000964,-0.00010134,-0.00001326,0.00
 001841,-0.00008543,0.00013953,-0.00005447,0.00045076,-0.00090733,0.000
 21131,0.00000853,-0.00000707,-0.00002141,0.00000412,0.00002529,0.00001
 036,-0.00001593,0.00001314,0.00003173,-0.00004137,-0.00001378,-0.00001
 016,0.00293555,-0.00085061,0.00036544,0.10913569,0.00011316,0.00009233
 ,-0.00003043,0.00441242,-0.00030046,0.00084839,0.00016060,0.00004636,-
 0.00003140,0.00044258,-0.00013039,-0.00004602,0.00003671,0.00003628,-0
 .00000171,0.00533879,-0.03261190,0.01264722,-0.00010469,-0.00011981,0.
 00021174,-0.00038338,0.00215430,-0.00056044,0.00000712,-0.00000567,-0.
 00007404,-0.00068945,0.00013777,0.00012595,-0.00003439,-0.00005043,0.0
 0001322,-0.00412567,-0.00112564,-0.00326248,-0.00022016,0.00011693,0.0
 0017464,-0.00006010,-0.00001727,0.00005517,0.08540253,-0.21386627,0.09
 671654,-0.00000828,0.00000175,-0.00000348,0.00002460,-0.00009917,0.000
 17117,-0.00000826,0.00000460,-0.00000383,0.00002476,-0.00000942,0.0000
 0288,0.00000417,0.00000329,-0.00000456,0.00000804,0.00000074,-0.000002
 66,-0.00001566,0.00007574,0.00019164,0.00065896,-0.00118630,0.00052250
 ,0.00003379,-0.00003048,-0.00000792,-0.00000093,-0.00000554,-0.0000158
 5,0.00000092,-0.00000361,-0.00001151,0.00001378,0.00000559,0.00000081,
 -0.00132729,0.00508677,-0.00132521,-0.08970466,0.24179991,-0.00009067,
 -0.00005150,-0.00003307,0.00809493,-0.01151024,0.00746495,-0.00002772,
 0.00002491,0.00000861,-0.00000273,-0.00001936,0.00003737,-0.00003276,0
 .00000540,-0.00000779,0.00405093,-0.01204065,0.00691635,0.00030441,-0.
 00027694,0.00060142,0.00162188,-0.00011126,-0.00012292,0.00017041,0.00
 001959,-0.00006519,0.00007561,-0.00015302,0.00009865,0.00001757,-0.000
 03870,0.00001076,-0.00078682,-0.00145278,0.00019700,0.00005194,-0.0000
 3886,0.00000421,0.00006955,0.00000886,0.00000631,-0.05596437,0.1108255
 6,-0.12043020,-0.00010892,-0.00000489,-0.00000227,0.00023304,-0.000328
 00,0.00054764,-0.00000323,0.00001157,-0.00000628,-0.00001041,0.0000067
 8,0.00002799,0.00000566,-0.00000044,-0.00000419,0.00000939,0.00000291,
 -0.00000686,0.00013081,-0.00039257,0.00052705,0.00005344,-0.00024140,0
 .00046907,-0.00000110,-0.00000084,-0.00000677,-0.00000167,-0.00000570,
 0.00000671,-0.00000365,0.00000076,0.00000032,-0.00001015,-0.00000081,-
 0.00000716,-0.01111176,0.02206196,-0.01033511,0.05326642,-0.10630032,0
 .11410340\\-0.00008756,-0.00002015,-0.00002832,0.00008707,-0.00001864,
 0.00002741,0.00003263,-0.00002560,0.00001015,-0.00002496,-0.00002665,-
 0.00001079,-0.00001753,0.00002008,-0.00000681,0.00001708,0.00001945,0.
 00000587,0.00009185,0.00005597,0.00001105,-0.00009213,0.00005539,-0.00
 001000,-0.00002719,0.00010181,0.00001491,0.00002450,0.00010043,-0.0000
 1451,-0.00006133,0.00002458,0.00003006,0.00006107,0.00002490,-0.000030
 41,-0.00000505,-0.00002329,0.00000234,0.00006673,-0.00007148,-0.000102
 42,-0.00006542,-0.00007124,0.00010288,0.00000287,-0.00000272,0.0000084
 4,-0.00000257,-0.00000242,-0.00000855,0.00002793,-0.00002837,-0.000020
 39,-0.00002744,-0.00002822,0.00001982,0.00002529,-0.00000929,0.0000197
 1,0.00004328,-0.00003829,-0.00002172,-0.00002562,-0.00000946,-0.000019
 77,-0.00004323,-0.00003830,0.00002182,0.00000826,0.00001775,-0.0000229
 7,-0.00000831,0.00001798,0.00002189,-0.00001467,0.00000742,0.00004616,
 -0.00002482,-0.00001955,0.00002214,0.00001452,0.00000745,-0.00004609,0
 .00002474,-0.00001953,-0.00002189\\\@


 SCIENCE IS LONG AND LIFE IS SHORT.

                     DON MOSER IN THE FEBRUARY 1979 SMITHSONIAN
 Job cpu time:       0 days  8 hours 28 minutes 47.3 seconds.
 Elapsed time:       0 days  0 hours 31 minutes 55.8 seconds.
 File lengths (MBytes):  RWF=    488 Int=      0 D2E=      0 Chk=     16 Scr=      1
 Normal termination of Gaussian 16 at Sat Sep 27 20:54:43 2025.
