 Entering Gaussian System, Link 0=g16
 Input=TPTE0164.gjf
 Output=TPTE0164.log
 Initial command:
 /usr/local/g16/l1.exe "/dados_01/scratch/Gau-2299601.inp" -scrdir="/dados_01/scratch/"
 Entering Link 1 = /usr/local/g16/l1.exe PID=   2299602.
  
 Copyright (c) 1988-2017, Gaussian, Inc.  All Rights Reserved.
  
 This is part of the Gaussian(R) 16 program.  It is based on
 the Gaussian(R) 09 system (copyright 2009, Gaussian, Inc.),
 the Gaussian(R) 03 system (copyright 2003, Gaussian, Inc.),
 the Gaussian(R) 98 system (copyright 1998, Gaussian, Inc.),
 the Gaussian(R) 94 system (copyright 1995, Gaussian, Inc.),
 the Gaussian 92(TM) system (copyright 1992, Gaussian, Inc.),
 the Gaussian 90(TM) system (copyright 1990, Gaussian, Inc.),
 the Gaussian 88(TM) system (copyright 1988, Gaussian, Inc.),
 the Gaussian 86(TM) system (copyright 1986, Carnegie Mellon
 University), and the Gaussian 82(TM) system (copyright 1983,
 Carnegie Mellon University). Gaussian is a federally registered
 trademark of Gaussian, Inc.
  
 This software contains proprietary and confidential information,
 including trade secrets, belonging to Gaussian, Inc.
  
 This software is provided under written license and may be
 used, copied, transmitted, or stored only in accord with that
 written license.
  
 The following legend is applicable only to US Government
 contracts under FAR:
  
                    RESTRICTED RIGHTS LEGEND
  
 Use, reproduction and disclosure by the US Government is
 subject to restrictions as set forth in subparagraphs (a)
 and (c) of the Commercial Computer Software - Restricted
 Rights clause in FAR 52.227-19.
  
 Gaussian, Inc.
 340 Quinnipiac St., Bldg. 40, Wallingford CT 06492
  
  
 ---------------------------------------------------------------
 Warning -- This program may not be used in any manner that
 competes with the business of Gaussian, Inc. or will provide
 assistance to any competitor of Gaussian, Inc.  The licensee
 of this program is prohibited from giving any competitor of
 Gaussian, Inc. access to this program.  By using this program,
 the user acknowledges that Gaussian, Inc. is engaged in the
 business of creating and licensing software in the field of
 computational chemistry and represents and warrants to the
 licensee that it is not a competitor of Gaussian, Inc. and that
 it will not use this program in any manner prohibited above.
 ---------------------------------------------------------------
  

 Cite this work as:
 Gaussian 16, Revision B.01,
 M. J. Frisch, G. W. Trucks, H. B. Schlegel, G. E. Scuseria, 
 M. A. Robb, J. R. Cheeseman, G. Scalmani, V. Barone, 
 G. A. Petersson, H. Nakatsuji, X. Li, M. Caricato, A. V. Marenich, 
 J. Bloino, B. G. Janesko, R. Gomperts, B. Mennucci, H. P. Hratchian, 
 J. V. Ortiz, A. F. Izmaylov, J. L. Sonnenberg, D. Williams-Young, 
 F. Ding, F. Lipparini, F. Egidi, J. Goings, B. Peng, A. Petrone, 
 T. Henderson, D. Ranasinghe, V. G. Zakrzewski, J. Gao, N. Rega, 
 G. Zheng, W. Liang, M. Hada, M. Ehara, K. Toyota, R. Fukuda, 
 J. Hasegawa, M. Ishida, T. Nakajima, Y. Honda, O. Kitao, H. Nakai, 
 T. Vreven, K. Throssell, J. A. Montgomery, Jr., J. E. Peralta, 
 F. Ogliaro, M. J. Bearpark, J. J. Heyd, E. N. Brothers, K. N. Kudin, 
 V. N. Staroverov, T. A. Keith, R. Kobayashi, J. Normand, 
 K. Raghavachari, A. P. Rendell, J. C. Burant, S. S. Iyengar, 
 J. Tomasi, M. Cossi, J. M. Millam, M. Klene, C. Adamo, R. Cammi, 
 J. W. Ochterski, R. L. Martin, K. Morokuma, O. Farkas, 
 J. B. Foresman, and D. J. Fox, Gaussian, Inc., Wallingford CT, 2016.
 
 ******************************************
 Gaussian 16:  ES64L-G16RevB.01 20-Dec-2017
                27-Sep-2025 
 ******************************************
 %nprocs=16
 Will use up to   16 processors via shared memory.
 %mem=40GB
 %chk=TPTE0164.chk
 ----------------------------------------------------------------------
 # opt freq=noraman M08HX/6-311++G** scf=xqc Empiricaldispersion=pfd In
 t(Grid=ultraFine)
 ----------------------------------------------------------------------
 1/18=20,19=15,26=4,38=1/1,3;
 2/9=110,12=2,17=6,18=5,40=1/2;
 3/5=4,6=6,7=1111,11=2,25=1,30=1,71=1,74=-74,75=-5,124=11/1,2,3;
 4//1;
 5/5=2,8=3,13=1,38=5/2,8;
 6/7=2,8=2,9=2,10=2,28=1/1;
 7//1,2,3,16;
 1/18=20,19=15,26=4/3(2);
 2/9=110/2;
 99//99;
 2/9=110/2;
 3/5=4,6=6,7=1111,11=2,25=1,30=1,71=1,74=-74,75=-5,124=11/1,2,3;
 4/5=5,16=3,69=1/1;
 5/5=2,8=3,13=1,38=5/2,8;
 7//1,2,3,16;
 1/18=20,19=15,26=4/3(-5);
 2/9=110/2;
 6/7=2,8=2,9=2,10=2,19=2,28=1/1;
 99/9=1/99;
 --------
 TPTE0164
 --------
 Symbolic Z-matrix:
 Charge =  0 Multiplicity = 1
 C                     0.6389   -0.0001   -0.0016 
 C                    -0.8723    0.       -0.431 
 C                     1.351     1.2548   -0.5521 
 C                     1.3617   -1.2315   -0.5902 
 C                     0.8193   -0.023     1.528 
 C                    -1.6492    1.2447    0.0239 
 C                    -1.6493   -1.2449    0.023 
 H                    -0.8991    0.0008   -1.53 
 H                     0.9903    2.1716   -0.0748 
 H                     1.2017    1.3511   -1.6332 
 H                     2.4313    1.2085   -0.3706 
 H                     1.0044   -2.166    -0.146 
 H                     2.4408   -1.1845   -0.4022 
 H                     1.2177   -1.2927   -1.6746 
 H                     0.3811   -0.9205    1.9756 
 H                     0.3637    0.8509    2.004 
 H                     1.8827   -0.0172    1.7954 
 H                    -1.2138    2.1641   -0.3772 
 H                    -2.6832    1.2034   -0.3374 
 H                    -1.6871    1.3251    1.1144 
 H                    -1.7002   -1.3177    1.1136 
 H                    -1.2055   -2.1652   -0.3661 
 H                    -2.6792   -1.2099   -0.3506 
 

 GradGradGradGradGradGradGradGradGradGradGradGradGradGradGradGradGradGrad
 Berny optimization.
 Initialization pass.
                           ----------------------------
                           !    Initial Parameters    !
                           ! (Angstroms and Degrees)  !
 --------------------------                            --------------------------
 ! Name  Definition              Value          Derivative Info.                !
 --------------------------------------------------------------------------------
 ! R1    R(1,2)                  1.571          estimate D2E/DX2                !
 ! R2    R(1,3)                  1.5443         estimate D2E/DX2                !
 ! R3    R(1,4)                  1.5444         estimate D2E/DX2                !
 ! R4    R(1,5)                  1.5404         estimate D2E/DX2                !
 ! R5    R(2,6)                  1.5362         estimate D2E/DX2                !
 ! R6    R(2,7)                  1.5361         estimate D2E/DX2                !
 ! R7    R(2,8)                  1.0993         estimate D2E/DX2                !
 ! R8    R(3,9)                  1.0947         estimate D2E/DX2                !
 ! R9    R(3,10)                 1.0956         estimate D2E/DX2                !
 ! R10   R(3,11)                 1.0964         estimate D2E/DX2                !
 ! R11   R(4,12)                 1.0947         estimate D2E/DX2                !
 ! R12   R(4,13)                 1.0964         estimate D2E/DX2                !
 ! R13   R(4,14)                 1.0956         estimate D2E/DX2                !
 ! R14   R(5,15)                 1.0945         estimate D2E/DX2                !
 ! R15   R(5,16)                 1.0945         estimate D2E/DX2                !
 ! R16   R(5,17)                 1.0965         estimate D2E/DX2                !
 ! R17   R(6,18)                 1.0935         estimate D2E/DX2                !
 ! R18   R(6,19)                 1.0961         estimate D2E/DX2                !
 ! R19   R(6,20)                 1.0941         estimate D2E/DX2                !
 ! R20   R(7,21)                 1.0942         estimate D2E/DX2                !
 ! R21   R(7,22)                 1.0933         estimate D2E/DX2                !
 ! R22   R(7,23)                 1.0961         estimate D2E/DX2                !
 ! A1    A(2,1,3)              110.247          estimate D2E/DX2                !
 ! A2    A(2,1,4)              110.2471         estimate D2E/DX2                !
 ! A3    A(2,1,5)              112.586          estimate D2E/DX2                !
 ! A4    A(3,1,4)              107.2319         estimate D2E/DX2                !
 ! A5    A(3,1,5)              108.183          estimate D2E/DX2                !
 ! A6    A(4,1,5)              108.1668         estimate D2E/DX2                !
 ! A7    A(1,2,6)              113.9285         estimate D2E/DX2                !
 ! A8    A(1,2,7)              113.9369         estimate D2E/DX2                !
 ! A9    A(1,2,8)              107.2592         estimate D2E/DX2                !
 ! A10   A(6,2,7)              108.2597         estimate D2E/DX2                !
 ! A11   A(6,2,8)              106.4466         estimate D2E/DX2                !
 ! A12   A(7,2,8)              106.4825         estimate D2E/DX2                !
 ! A13   A(1,3,9)              111.9112         estimate D2E/DX2                !
 ! A14   A(1,3,10)             111.121          estimate D2E/DX2                !
 ! A15   A(1,3,11)             111.1621         estimate D2E/DX2                !
 ! A16   A(9,3,10)             108.1626         estimate D2E/DX2                !
 ! A17   A(9,3,11)             106.7283         estimate D2E/DX2                !
 ! A18   A(10,3,11)            107.5374         estimate D2E/DX2                !
 ! A19   A(1,4,12)             111.9166         estimate D2E/DX2                !
 ! A20   A(1,4,13)             111.1681         estimate D2E/DX2                !
 ! A21   A(1,4,14)             111.1145         estimate D2E/DX2                !
 ! A22   A(12,4,13)            106.755          estimate D2E/DX2                !
 ! A23   A(12,4,14)            108.1222         estimate D2E/DX2                !
 ! A24   A(13,4,14)            107.5462         estimate D2E/DX2                !
 ! A25   A(1,5,15)             111.8023         estimate D2E/DX2                !
 ! A26   A(1,5,16)             111.7929         estimate D2E/DX2                !
 ! A27   A(1,5,17)             110.8336         estimate D2E/DX2                !
 ! A28   A(15,5,16)            108.0737         estimate D2E/DX2                !
 ! A29   A(15,5,17)            107.031          estimate D2E/DX2                !
 ! A30   A(16,5,17)            107.0628         estimate D2E/DX2                !
 ! A31   A(2,6,18)             111.7938         estimate D2E/DX2                !
 ! A32   A(2,6,19)             110.4233         estimate D2E/DX2                !
 ! A33   A(2,6,20)             111.852          estimate D2E/DX2                !
 ! A34   A(18,6,19)            106.6419         estimate D2E/DX2                !
 ! A35   A(18,6,20)            108.5178         estimate D2E/DX2                !
 ! A36   A(19,6,20)            107.3753         estimate D2E/DX2                !
 ! A37   A(2,7,21)             111.8406         estimate D2E/DX2                !
 ! A38   A(2,7,22)             111.8188         estimate D2E/DX2                !
 ! A39   A(2,7,23)             110.4048         estimate D2E/DX2                !
 ! A40   A(21,7,22)            108.5177         estimate D2E/DX2                !
 ! A41   A(21,7,23)            107.3452         estimate D2E/DX2                !
 ! A42   A(22,7,23)            106.677          estimate D2E/DX2                !
 ! D1    D(3,1,2,6)            -57.5598         estimate D2E/DX2                !
 ! D2    D(3,1,2,7)            177.5491         estimate D2E/DX2                !
 ! D3    D(3,1,2,8)             59.9699         estimate D2E/DX2                !
 ! D4    D(4,1,2,6)           -175.7632         estimate D2E/DX2                !
 ! D5    D(4,1,2,7)             59.3456         estimate D2E/DX2                !
 ! D6    D(4,1,2,8)            -58.2335         estimate D2E/DX2                !
 ! D7    D(5,1,2,6)             63.3488         estimate D2E/DX2                !
 ! D8    D(5,1,2,7)            -61.5423         estimate D2E/DX2                !
 ! D9    D(5,1,2,8)           -179.1215         estimate D2E/DX2                !
 ! D10   D(2,1,3,9)             67.9364         estimate D2E/DX2                !
 ! D11   D(2,1,3,10)           -53.0983         estimate D2E/DX2                !
 ! D12   D(2,1,3,11)          -172.8291         estimate D2E/DX2                !
 ! D13   D(4,1,3,9)           -172.0237         estimate D2E/DX2                !
 ! D14   D(4,1,3,10)            66.9416         estimate D2E/DX2                !
 ! D15   D(4,1,3,11)           -52.7892         estimate D2E/DX2                !
 ! D16   D(5,1,3,9)            -55.5703         estimate D2E/DX2                !
 ! D17   D(5,1,3,10)          -176.605          estimate D2E/DX2                !
 ! D18   D(5,1,3,11)            63.6642         estimate D2E/DX2                !
 ! D19   D(2,1,4,12)           -67.5646         estimate D2E/DX2                !
 ! D20   D(2,1,4,13)           173.1592         estimate D2E/DX2                !
 ! D21   D(2,1,4,14)            53.4176         estimate D2E/DX2                !
 ! D22   D(3,1,4,12)           172.3955         estimate D2E/DX2                !
 ! D23   D(3,1,4,13)            53.1194         estimate D2E/DX2                !
 ! D24   D(3,1,4,14)           -66.6223         estimate D2E/DX2                !
 ! D25   D(5,1,4,12)            55.9314         estimate D2E/DX2                !
 ! D26   D(5,1,4,13)           -63.3447         estimate D2E/DX2                !
 ! D27   D(5,1,4,14)           176.9136         estimate D2E/DX2                !
 ! D28   D(2,1,5,15)            60.9744         estimate D2E/DX2                !
 ! D29   D(2,1,5,16)           -60.3442         estimate D2E/DX2                !
 ! D30   D(2,1,5,17)          -179.7019         estimate D2E/DX2                !
 ! D31   D(3,1,5,15)          -176.9428         estimate D2E/DX2                !
 ! D32   D(3,1,5,16)            61.7386         estimate D2E/DX2                !
 ! D33   D(3,1,5,17)           -57.6191         estimate D2E/DX2                !
 ! D34   D(4,1,5,15)           -61.0971         estimate D2E/DX2                !
 ! D35   D(4,1,5,16)           177.5842         estimate D2E/DX2                !
 ! D36   D(4,1,5,17)            58.2265         estimate D2E/DX2                !
 ! D37   D(1,2,6,18)            59.302          estimate D2E/DX2                !
 ! D38   D(1,2,6,19)           177.8575         estimate D2E/DX2                !
 ! D39   D(1,2,6,20)           -62.6273         estimate D2E/DX2                !
 ! D40   D(7,2,6,18)          -172.8317         estimate D2E/DX2                !
 ! D41   D(7,2,6,19)           -54.2762         estimate D2E/DX2                !
 ! D42   D(7,2,6,20)            65.239          estimate D2E/DX2                !
 ! D43   D(8,2,6,18)           -58.6953         estimate D2E/DX2                !
 ! D44   D(8,2,6,19)            59.8602         estimate D2E/DX2                !
 ! D45   D(8,2,6,20)           179.3754         estimate D2E/DX2                !
 ! D46   D(1,2,7,21)            63.4944         estimate D2E/DX2                !
 ! D47   D(1,2,7,22)           -58.4448         estimate D2E/DX2                !
 ! D48   D(1,2,7,23)          -177.0481         estimate D2E/DX2                !
 ! D49   D(6,2,7,21)           -64.3671         estimate D2E/DX2                !
 ! D50   D(6,2,7,22)           173.6937         estimate D2E/DX2                !
 ! D51   D(6,2,7,23)            55.0903         estimate D2E/DX2                !
 ! D52   D(8,2,7,21)          -178.4798         estimate D2E/DX2                !
 ! D53   D(8,2,7,22)            59.5811         estimate D2E/DX2                !
 ! D54   D(8,2,7,23)           -59.0223         estimate D2E/DX2                !
 --------------------------------------------------------------------------------
 Trust Radius=3.00D-01 FncErr=1.00D-07 GrdErr=1.00D-06 EigMax=2.50D+02 EigMin=1.00D-04
 Number of steps in this run=    128 maximum allowed number of steps=    138.
 GradGradGradGradGradGradGradGradGradGradGradGradGradGradGradGradGradGrad

                          Input orientation:                          
 ---------------------------------------------------------------------
 Center     Atomic      Atomic             Coordinates (Angstroms)
 Number     Number       Type             X           Y           Z
 ---------------------------------------------------------------------
      1          6           0        0.638900   -0.000100   -0.001600
      2          6           0       -0.872300    0.000000   -0.431000
      3          6           0        1.351000    1.254800   -0.552100
      4          6           0        1.361700   -1.231500   -0.590200
      5          6           0        0.819300   -0.023000    1.528000
      6          6           0       -1.649200    1.244700    0.023900
      7          6           0       -1.649300   -1.244900    0.023000
      8          1           0       -0.899100    0.000800   -1.530000
      9          1           0        0.990300    2.171600   -0.074800
     10          1           0        1.201700    1.351100   -1.633200
     11          1           0        2.431300    1.208500   -0.370600
     12          1           0        1.004400   -2.166000   -0.146000
     13          1           0        2.440800   -1.184500   -0.402200
     14          1           0        1.217700   -1.292700   -1.674600
     15          1           0        0.381100   -0.920500    1.975600
     16          1           0        0.363700    0.850900    2.004000
     17          1           0        1.882700   -0.017200    1.795400
     18          1           0       -1.213800    2.164100   -0.377200
     19          1           0       -2.683200    1.203400   -0.337400
     20          1           0       -1.687100    1.325100    1.114400
     21          1           0       -1.700200   -1.317700    1.113600
     22          1           0       -1.205500   -2.165200   -0.366100
     23          1           0       -2.679200   -1.209900   -0.350600
 ---------------------------------------------------------------------
                    Distance matrix (angstroms):
                    1          2          3          4          5
     1  C    0.000000
     2  C    1.571022   0.000000
     3  C    1.544316   2.555827   0.000000
     4  C    1.544421   2.555913   2.486615   0.000000
     5  C    1.540372   2.588382   2.498458   2.498288   0.000000
     6  C    2.604914   1.536159   3.055009   3.946417   3.156402
     7  C    2.604994   1.536106   3.947283   3.072835   3.138798
     8  H    2.168283   1.099327   2.755314   2.740986   3.507824
     9  H    2.201164   2.883055   1.094734   3.461887   2.722954
    10  H    2.191941   2.751769   1.095601   2.789852   3.468078
    11  H    2.193074   3.518223   1.096419   2.673176   2.778456
    12  H    2.201264   2.880067   3.462213   1.094654   2.725617
    13  H    2.193200   3.518594   2.675877   1.096362   2.775611
    14  H    2.191975   2.754218   2.787029   1.095630   3.468070
    15  H    2.196114   2.865319   3.473025   2.764349   1.094473
    16  H    2.195989   2.860236   2.769755   3.473078   1.094463
    17  H    2.185530   3.542200   2.722397   2.727096   1.096520
    18  H    2.873558   2.191540   2.726833   4.267162   3.542131
    19  H    3.549299   2.176302   4.040236   4.727987   4.153466
    20  H    2.900325   2.192727   3.465864   4.328631   2.875844
    21  H    2.907083   2.192611   4.324596   3.505082   2.862840
    22  H    2.867460   2.191649   4.273955   2.740900   3.503777
    23  H    3.548972   2.176054   4.728410   4.048055   4.144559
                    6          7          8          9         10
     6  C    0.000000
     7  C    2.489600   0.000000
     8  H    2.127097   2.127529   0.000000
     9  H    2.799258   4.318510   3.224874   0.000000
    10  H    3.299232   4.196477   2.499464   1.773844   0.000000
    11  H    4.099685   4.777592   3.727507   1.758278   1.768166
    12  H    4.324735   2.814091   3.199030   4.338207   3.823700
    13  H    4.776052   4.112586   3.719113   3.670769   3.078960
    14  H    4.188367   3.332239   2.484933   3.822623   2.644173
    15  H    3.552371   2.835561   3.844078   3.759833   4.342463
    16  H    2.850902   3.516946   3.847920   2.541316   3.765856
    17  H    4.147882   4.138076   4.335553   3.014112   3.753839
    18  H    1.093504   3.459928   2.471407   2.224760   2.841328
    19  H    1.096084   2.681979   2.459991   3.808014   4.097970
    20  H    1.094116   2.792397   3.060648   3.049464   3.986872
    21  H    2.784949   1.094212   3.060854   4.563584   4.805042
    22  H    3.460692   1.093302   2.477923   4.869726   4.445731
    23  H    2.688161   1.096128   2.454696   4.997583   4.823398
                   11         12         13         14         15
    11  H    0.000000
    12  H    3.670659   0.000000
    13  H    2.393227   1.758473   0.000000
    14  H    3.070707   1.773349   1.768243   0.000000
    15  H    3.773674   2.537905   3.156896   3.763295   0.000000
    16  H    3.168844   3.759612   3.774519   4.342400   1.771713
    17  H    2.548501   3.026183   2.550198   3.756331   1.761597
    18  H    3.768285   4.870691   4.956798   4.420962   4.194536
    19  H    5.114610   4.998788   5.653463   4.820336   4.387580
    20  H    4.379502   4.584818   5.063371   4.803047   3.172040
    21  H    5.064961   3.101784   4.411720   4.035942   2.287492
    22  H    4.960664   2.220834   3.776053   2.888828   3.090330
    23  H    5.653872   3.811154   5.120323   4.116511   3.854918
                   16         17         18         19         20
    16  H    0.000000
    17  H    1.761951   0.000000
    18  H    3.143742   4.366529   0.000000
    19  H    3.858758   5.185185   1.756037   0.000000
    20  H    2.285177   3.874145   1.775614   1.764865   0.000000
    21  H    3.123351   3.872121   3.818639   3.070445   2.642833
    22  H    4.144469   4.338544   4.329322   3.678571   3.821781
    23  H    4.364662   5.180616   3.678584   2.413339   3.091393
                   21         22         23
    21  H    0.000000
    22  H    1.775527   0.000000
    23  H    1.764637   1.756311   0.000000
 Stoichiometry    C7H16
 Framework group  C1[X(C7H16)]
 Deg. of freedom    63
 Full point group                 C1      NOp   1
 Largest Abelian subgroup         C1      NOp   1
 Largest concise Abelian subgroup C1      NOp   1
                         Standard orientation:                         
 ---------------------------------------------------------------------
 Center     Atomic      Atomic             Coordinates (Angstroms)
 Number     Number       Type             X           Y           Z
 ---------------------------------------------------------------------
      1          6           0        0.641684   -0.000083   -0.006024
      2          6           0       -0.863807   -0.000080   -0.455030
      3          6           0        1.360786    1.254890   -0.547177
      4          6           0        1.372166   -1.231408   -0.585222
      5          6           0        0.802189   -0.023025    1.525791
      6          6           0       -1.646647    1.244546   -0.010223
      7          6           0       -1.646549   -1.245054   -0.011212
      8          1           0       -0.876319    0.000758   -1.554286
      9          1           0        0.993844    2.171646   -0.074574
     10          1           0        1.225544    1.351218   -1.630123
     11          1           0        2.438639    1.208663   -0.351652
     12          1           0        1.009192   -2.165951   -0.145736
     13          1           0        2.448728   -1.184335   -0.383210
     14          1           0        1.242278   -1.292580   -1.671404
     15          1           0        0.358275   -0.920573    1.967626
     16          1           0        0.340375    0.850824    1.995860
     17          1           0        1.862023   -0.017155    1.806991
     18          1           0       -1.206139    2.163993   -0.405598
     19          1           0       -2.675860    1.203183   -0.384935
     20          1           0       -1.698724    1.324904    1.079695
     21          1           0       -1.711615   -1.317897    1.078632
     22          1           0       -1.197660   -2.165307   -0.394543
     23          1           0       -2.671509   -1.210117   -0.398166
 ---------------------------------------------------------------------
 Rotational constants (GHZ):           3.0046737           2.1336180           1.7795553
 Standard basis: 6-311++G(d,p) (5D, 7F)
 There are   273 symmetry adapted cartesian basis functions of A   symmetry.
 There are   266 symmetry adapted basis functions of A   symmetry.
   266 basis functions,   396 primitive gaussians,   273 cartesian basis functions
    29 alpha electrons       29 beta electrons
       nuclear repulsion energy       344.2561518339 Hartrees.
 NAtoms=   23 NActive=   23 NUniq=   23 SFac= 1.00D+00 NAtFMM=   60 NAOKFM=F Big=F
 Integral buffers will be    131072 words long.
 Raffenetti 2 integral format.
 Two-electron integral symmetry is turned on.
 R6APFD:  NTU= -4 IXU= 1 FactS= 1.050
 Nuclear repulsion after empirical dispersion term =      344.2387009760 Hartrees.
 One-electron integrals computed using PRISM.
 NBasis=   266 RedAO= T EigKep=  1.01D-05  NBF=   266
 NBsUse=   266 1.00D-06 EigRej= -1.00D+00 NBFU=   266
 ExpMin= 3.60D-02 ExpMax= 4.56D+03 ExpMxC= 6.82D+02 IAcc=3 IRadAn=         5 AccDes= 0.00D+00
 Harris functional with IExCor= 1009 and IRadAn=       5 diagonalized for initial guess.
 HarFok:  IExCor= 1009 AccDes= 0.00D+00 IRadAn=         5 IDoV= 1 UseB2=F ITyADJ=14
 ICtDFT=  3500011 ScaDFX=  1.000000  1.000000  1.000000  1.000000
 FoFCou: FMM=F IPFlag=           0 FMFlag=      100000 FMFlg1=           0
         NFxFlg=           0 DoJE=T BraDBF=F KetDBF=T FulRan=T
         wScrn=  0.000000 ICntrl=       500 IOpCl=  0 I1Cent=   200000004 NGrid=           0
         NMat0=    1 NMatS0=      1 NMatT0=    0 NMatD0=    1 NMtDS0=    0 NMtDT0=    0
 Petite list used in FoFCou.
 Requested convergence on RMS density matrix=1.00D-08 within  32 cycles.
 Requested convergence on MAX density matrix=1.00D-06.
 Requested convergence on             energy=1.00D-06.
 No special actions if energy rises.
 SCF Done:  E(RM08HX) =  -276.423673605     A.U. after   12 cycles
            NFock= 12  Conv=0.37D-08     -V/T= 2.0066
 QCSCF skips out because SCF is already converged.

 **********************************************************************

            Population analysis using the SCF Density.

 **********************************************************************

 Orbital symmetries:
       Occupied  (A) (A) (A) (A) (A) (A) (A) (A) (A) (A) (A) (A)
                 (A) (A) (A) (A) (A) (A) (A) (A) (A) (A) (A) (A)
                 (A) (A) (A) (A) (A)
       Virtual   (A) (A) (A) (A) (A) (A) (A) (A) (A) (A) (A) (A)
                 (A) (A) (A) (A) (A) (A) (A) (A) (A) (A) (A) (A)
                 (A) (A) (A) (A) (A) (A) (A) (A) (A) (A) (A) (A)
                 (A) (A) (A) (A) (A) (A) (A) (A) (A) (A) (A) (A)
                 (A) (A) (A) (A) (A) (A) (A) (A) (A) (A) (A) (A)
                 (A) (A) (A) (A) (A) (A) (A) (A) (A) (A) (A) (A)
                 (A) (A) (A) (A) (A) (A) (A) (A) (A) (A) (A) (A)
                 (A) (A) (A) (A) (A) (A) (A) (A) (A) (A) (A) (A)
                 (A) (A) (A) (A) (A) (A) (A) (A) (A) (A) (A) (A)
                 (A) (A) (A) (A) (A) (A) (A) (A) (A) (A) (A) (A)
                 (A) (A) (A) (A) (A) (A) (A) (A) (A) (A) (A) (A)
                 (A) (A) (A) (A) (A) (A) (A) (A) (A) (A) (A) (A)
                 (A) (A) (A) (A) (A) (A) (A) (A) (A) (A) (A) (A)
                 (A) (A) (A) (A) (A) (A) (A) (A) (A) (A) (A) (A)
                 (A) (A) (A) (A) (A) (A) (A) (A) (A) (A) (A) (A)
                 (A) (A) (A) (A) (A) (A) (A) (A) (A) (A) (A) (A)
                 (A) (A) (A) (A) (A) (A) (A) (A) (A) (A) (A) (A)
                 (A) (A) (A) (A) (A) (A) (A) (A) (A) (A) (A) (A)
                 (A) (A) (A) (A) (A) (A) (A) (A) (A) (A) (A) (A)
                 (A) (A) (A) (A) (A) (A) (A) (A) (A)
 The electronic state is 1-A.
 Alpha  occ. eigenvalues --  -10.54234 -10.53143 -10.51082 -10.51073 -10.51072
 Alpha  occ. eigenvalues --  -10.51057 -10.51054  -0.93654  -0.85915  -0.78702
 Alpha  occ. eigenvalues --   -0.77743  -0.76194  -0.68944  -0.60057  -0.54217
 Alpha  occ. eigenvalues --   -0.52310  -0.50972  -0.49945  -0.47548  -0.46127
 Alpha  occ. eigenvalues --   -0.44426  -0.44104  -0.43058  -0.42367  -0.40695
 Alpha  occ. eigenvalues --   -0.40252  -0.37164  -0.36710  -0.36417
 Alpha virt. eigenvalues --   -0.02768  -0.01235  -0.00948  -0.00934   0.01009
 Alpha virt. eigenvalues --    0.01296   0.01396   0.01691   0.01704   0.04175
 Alpha virt. eigenvalues --    0.04362   0.04819   0.05152   0.05452   0.05791
 Alpha virt. eigenvalues --    0.05904   0.08398   0.08432   0.10145   0.10170
 Alpha virt. eigenvalues --    0.10338   0.11006   0.11730   0.12246   0.12501
 Alpha virt. eigenvalues --    0.12647   0.12958   0.13539   0.13830   0.14247
 Alpha virt. eigenvalues --    0.14606   0.14985   0.15443   0.15804   0.15924
 Alpha virt. eigenvalues --    0.16611   0.17077   0.17818   0.17888   0.18121
 Alpha virt. eigenvalues --    0.19261   0.19598   0.21153   0.22071   0.22913
 Alpha virt. eigenvalues --    0.23565   0.24163   0.24668   0.25073   0.26306
 Alpha virt. eigenvalues --    0.27107   0.27770   0.28275   0.30115   0.30620
 Alpha virt. eigenvalues --    0.31218   0.31467   0.32368   0.32511   0.33395
 Alpha virt. eigenvalues --    0.34039   0.34194   0.34589   0.35077   0.39500
 Alpha virt. eigenvalues --    0.43941   0.44690   0.46625   0.46868   0.48551
 Alpha virt. eigenvalues --    0.50491   0.53053   0.53699   0.54074   0.55212
 Alpha virt. eigenvalues --    0.59184   0.60405   0.60825   0.63391   0.63441
 Alpha virt. eigenvalues --    0.64259   0.66776   0.68269   0.68773   0.69313
 Alpha virt. eigenvalues --    0.69876   0.70448   0.71181   0.71258   0.72106
 Alpha virt. eigenvalues --    0.73082   0.73237   0.74917   0.75620   0.76478
 Alpha virt. eigenvalues --    0.76568   0.78323   0.79824   0.81413   0.81488
 Alpha virt. eigenvalues --    0.84121   0.84976   0.85391   0.88987   0.95703
 Alpha virt. eigenvalues --    1.02202   1.03022   1.04356   1.10275   1.15042
 Alpha virt. eigenvalues --    1.15134   1.15670   1.17283   1.19589   1.21814
 Alpha virt. eigenvalues --    1.28219   1.36044   1.38573   1.40986   1.48021
 Alpha virt. eigenvalues --    1.49965   1.50033   1.51573   1.52464   1.52552
 Alpha virt. eigenvalues --    1.53813   1.54903   1.55307   1.56193   1.58028
 Alpha virt. eigenvalues --    1.59882   1.60034   1.62954   1.64050   1.64307
 Alpha virt. eigenvalues --    1.64650   1.66083   1.69857   1.70229   1.70298
 Alpha virt. eigenvalues --    1.70608   1.70826   1.72776   1.74675   1.76733
 Alpha virt. eigenvalues --    1.79445   1.80961   1.81655   1.84070   1.84495
 Alpha virt. eigenvalues --    1.87258   1.88880   1.89987   1.92985   1.97904
 Alpha virt. eigenvalues --    1.99310   2.04000   2.04909   2.06161   2.08290
 Alpha virt. eigenvalues --    2.12208   2.15311   2.18524   2.18647   2.21071
 Alpha virt. eigenvalues --    2.21817   2.25165   2.25284   2.31603   2.33955
 Alpha virt. eigenvalues --    2.38190   2.39125   2.44318   2.45098   2.46158
 Alpha virt. eigenvalues --    2.49619   2.50965   2.53681   2.53825   2.55097
 Alpha virt. eigenvalues --    2.55317   2.55963   2.56244   2.57654   2.58298
 Alpha virt. eigenvalues --    2.59087   2.59239   2.61578   2.64533   2.65590
 Alpha virt. eigenvalues --    2.65834   2.67894   2.69426   2.69917   2.72389
 Alpha virt. eigenvalues --    2.72651   2.73230   2.76330   2.77067   2.77654
 Alpha virt. eigenvalues --    2.83463   2.84903   2.87347   2.91803   2.96711
 Alpha virt. eigenvalues --    2.98314   3.00053   3.10587   3.12807   3.17766
 Alpha virt. eigenvalues --    3.22037   3.28418   3.30953   3.50349   3.70906
 Alpha virt. eigenvalues --    3.79878   3.80218   3.80696   3.82905   3.83107
 Alpha virt. eigenvalues --    3.85236   3.87268   3.88093   3.88843   3.89336
 Alpha virt. eigenvalues --    4.09867   4.34857   4.35810   4.36246   4.44311
 Alpha virt. eigenvalues --   23.83396  23.91386  24.03306  24.04123  24.04797
 Alpha virt. eigenvalues --   24.05533  24.05583
          Condensed to atoms (all electrons):
               1          2          3          4          5          6
     1  C    7.063218  -2.138225   0.049642   0.065972   0.416383   0.230499
     2  C   -2.138225   9.200952  -0.093062  -0.087855  -0.407218  -0.556964
     3  C    0.049642  -0.093062   6.189354  -0.370259  -0.259065   0.154862
     4  C    0.065972  -0.087855  -0.370259   6.191396  -0.271595  -0.123595
     5  C    0.416383  -0.407218  -0.259065  -0.271595   5.948479   0.110992
     6  C    0.230499  -0.556964   0.154862  -0.123595   0.110992   6.109039
     7  C    0.220639  -0.529823  -0.113516   0.150501   0.109305  -0.196298
     8  H   -0.148115   0.607976  -0.005045  -0.002846  -0.001853  -0.089011
     9  H    0.004639  -0.028265   0.357159   0.037105  -0.020939   0.008822
    10  H    0.051665  -0.035672   0.348028  -0.019753   0.030020  -0.012322
    11  H   -0.030175   0.055006   0.432546  -0.044290  -0.041055   0.004801
    12  H   -0.001155  -0.019827   0.038205   0.358912  -0.022285  -0.006692
    13  H   -0.026030   0.053945  -0.044859   0.432161  -0.043206  -0.007760
    14  H    0.054932  -0.041722  -0.020650   0.345608   0.032780   0.003969
    15  H   -0.005613  -0.001060   0.050764  -0.032903   0.346618   0.015155
    16  H   -0.008458   0.010498  -0.031383   0.052306   0.343443  -0.023957
    17  H    0.004883  -0.000664  -0.032646  -0.034590   0.423408   0.006918
    18  H   -0.002123  -0.091710  -0.005296   0.004312   0.017952   0.417514
    19  H    0.060959  -0.114938  -0.002013  -0.001747  -0.002231   0.454258
    20  H   -0.060430   0.122270   0.002765   0.000407  -0.013884   0.326151
    21  H   -0.073484   0.125530   0.000039   0.006099  -0.009123  -0.027117
    22  H    0.015781  -0.104063   0.004707  -0.010768   0.015010   0.030379
    23  H    0.058942  -0.110896  -0.001495  -0.001505  -0.002704  -0.015390
               7          8          9         10         11         12
     1  C    0.220639  -0.148115   0.004639   0.051665  -0.030175  -0.001155
     2  C   -0.529823   0.607976  -0.028265  -0.035672   0.055006  -0.019827
     3  C   -0.113516  -0.005045   0.357159   0.348028   0.432546   0.038205
     4  C    0.150501  -0.002846   0.037105  -0.019753  -0.044290   0.358912
     5  C    0.109305  -0.001853  -0.020939   0.030020  -0.041055  -0.022285
     6  C   -0.196298  -0.089011   0.008822  -0.012322   0.004801  -0.006692
     7  C    6.084356  -0.089045  -0.005920   0.002974  -0.007765   0.005137
     8  H   -0.089045   0.483842   0.006875  -0.001569  -0.001916   0.007432
     9  H   -0.005920   0.006875   0.551144  -0.044549  -0.045790  -0.002538
    10  H    0.002974  -0.001569  -0.044549   0.509489  -0.036240  -0.002126
    11  H   -0.007765  -0.001916  -0.045790  -0.036240   0.513078   0.001093
    12  H    0.005137   0.007432  -0.002538  -0.002126   0.001093   0.554386
    13  H    0.005145  -0.002205   0.001024   0.004009  -0.003866  -0.045943
    14  H   -0.010168  -0.001162  -0.001987   0.001395   0.004118  -0.045689
    15  H   -0.018139  -0.000142   0.001789  -0.004445   0.000840  -0.005735
    16  H    0.012487   0.000160  -0.005608   0.001454   0.003621   0.001947
    17  H    0.005885  -0.002471   0.004459  -0.000247  -0.004892   0.004339
    18  H    0.029454  -0.012958  -0.003704  -0.010944   0.003610  -0.001411
    19  H   -0.014748  -0.018129  -0.002197  -0.000817   0.000717  -0.000354
    20  H   -0.026951   0.015482   0.001474   0.004055  -0.003080   0.001936
    21  H    0.328655   0.015606   0.001998  -0.000447   0.000241   0.002282
    22  H    0.418333  -0.013405  -0.001430   0.002936  -0.001110  -0.004058
    23  H    0.452358  -0.017816  -0.000291   0.000174   0.000412  -0.002352
              13         14         15         16         17         18
     1  C   -0.026030   0.054932  -0.005613  -0.008458   0.004883  -0.002123
     2  C    0.053945  -0.041722  -0.001060   0.010498  -0.000664  -0.091710
     3  C   -0.044859  -0.020650   0.050764  -0.031383  -0.032646  -0.005296
     4  C    0.432161   0.345608  -0.032903   0.052306  -0.034590   0.004312
     5  C   -0.043206   0.032780   0.346618   0.343443   0.423408   0.017952
     6  C   -0.007760   0.003969   0.015155  -0.023957   0.006918   0.417514
     7  C    0.005145  -0.010168  -0.018139   0.012487   0.005885   0.029454
     8  H   -0.002205  -0.001162  -0.000142   0.000160  -0.002471  -0.012958
     9  H    0.001024  -0.001987   0.001789  -0.005608   0.004459  -0.003704
    10  H    0.004009   0.001395  -0.004445   0.001454  -0.000247  -0.010944
    11  H   -0.003866   0.004118   0.000840   0.003621  -0.004892   0.003610
    12  H   -0.045943  -0.045689  -0.005735   0.001947   0.004339  -0.001411
    13  H    0.512888  -0.036261   0.003635   0.000839  -0.004840  -0.001011
    14  H   -0.036261   0.512017   0.001726  -0.004668  -0.000275   0.002851
    15  H    0.003635   0.001726   0.557765  -0.060558  -0.037066   0.002357
    16  H    0.000839  -0.004668  -0.060558   0.560578  -0.038159   0.003443
    17  H   -0.004840  -0.000275  -0.037066  -0.038159   0.495671  -0.001152
    18  H   -0.001011   0.002851   0.002357   0.003443  -0.001152   0.559167
    19  H    0.000407   0.000200  -0.002388   0.001252   0.000971  -0.029799
    20  H    0.000221  -0.000335   0.003504  -0.014142  -0.001939  -0.059704
    21  H   -0.003141   0.003774  -0.013242   0.003381  -0.002006  -0.004180
    22  H    0.003555  -0.010437   0.003101   0.002423  -0.000981  -0.002924
    23  H    0.000730  -0.000728   0.001326  -0.002486   0.000932   0.003562
              19         20         21         22         23
     1  C    0.060959  -0.060430  -0.073484   0.015781   0.058942
     2  C   -0.114938   0.122270   0.125530  -0.104063  -0.110896
     3  C   -0.002013   0.002765   0.000039   0.004707  -0.001495
     4  C   -0.001747   0.000407   0.006099  -0.010768  -0.001505
     5  C   -0.002231  -0.013884  -0.009123   0.015010  -0.002704
     6  C    0.454258   0.326151  -0.027117   0.030379  -0.015390
     7  C   -0.014748  -0.026951   0.328655   0.418333   0.452358
     8  H   -0.018129   0.015482   0.015606  -0.013405  -0.017816
     9  H   -0.002197   0.001474   0.001998  -0.001430  -0.000291
    10  H   -0.000817   0.004055  -0.000447   0.002936   0.000174
    11  H    0.000717  -0.003080   0.000241  -0.001110   0.000412
    12  H   -0.000354   0.001936   0.002282  -0.004058  -0.002352
    13  H    0.000407   0.000221  -0.003141   0.003555   0.000730
    14  H    0.000200  -0.000335   0.003774  -0.010437  -0.000728
    15  H   -0.002388   0.003504  -0.013242   0.003101   0.001326
    16  H    0.001252  -0.014142   0.003381   0.002423  -0.002486
    17  H    0.000971  -0.001939  -0.002006  -0.000981   0.000932
    18  H   -0.029799  -0.059704  -0.004180  -0.002924   0.003562
    19  H    0.508794  -0.045736   0.000817   0.003806   0.002102
    20  H   -0.045736   0.541830   0.005914  -0.004422   0.001403
    21  H    0.000817   0.005914   0.540221  -0.060337  -0.044700
    22  H    0.003806  -0.004422  -0.060337   0.563073  -0.030410
    23  H    0.002102   0.001403  -0.044700  -0.030410   0.507862
 Mulliken charges:
               1
     1  C    0.195654
     2  C    0.185789
     3  C   -0.648779
     4  C   -0.643073
     5  C   -0.699233
     6  C   -0.814253
     7  C   -0.812856
     8  H    0.270314
     9  H    0.186730
    10  H    0.212931
    11  H    0.200096
    12  H    0.184497
    13  H    0.200562
    14  H    0.210711
    15  H    0.192710
    16  H    0.191586
    17  H    0.214462
    18  H    0.182696
    19  H    0.200815
    20  H    0.203210
    21  H    0.203220
    22  H    0.181240
    23  H    0.200970
 Sum of Mulliken charges =  -0.00000
 Mulliken charges with hydrogens summed into heavy atoms:
               1
     1  C    0.195654
     2  C    0.456103
     3  C   -0.049022
     4  C   -0.047302
     5  C   -0.100475
     6  C   -0.227531
     7  C   -0.227426
 Electronic spatial extent (au):  <R**2>=            902.5740
 Charge=              0.0000 electrons
 Dipole moment (field-independent basis, Debye):
    X=             -0.0250    Y=              0.0003    Z=             -0.0824  Tot=              0.0861
 Quadrupole moment (field-independent basis, Debye-Ang):
   XX=            -49.2747   YY=            -50.0209   ZZ=            -49.3958
   XY=             -0.0002   XZ=              0.4167   YZ=             -0.0021
 Traceless Quadrupole moment (field-independent basis, Debye-Ang):
   XX=              0.2891   YY=             -0.4571   ZZ=              0.1680
   XY=             -0.0002   XZ=              0.4167   YZ=             -0.0021
 Octapole moment (field-independent basis, Debye-Ang**2):
  XXX=              0.8759  YYY=             -0.0916  ZZZ=             -1.6799  XYY=             -0.1715
  XXY=              0.0023  XXZ=             -0.3696  XZZ=             -1.2844  YZZ=              0.0895
  YYZ=              0.6146  XYZ=             -0.0176
 Hexadecapole moment (field-independent basis, Debye-Ang**3):
 XXXX=           -603.5924 YYYY=           -415.5228 ZZZZ=           -264.9107 XXXY=              0.0702
 XXXZ=             10.0456 YYYX=             -0.0734 YYYZ=             -0.0484 ZZZX=             -2.8657
 ZZZY=             -0.0032 XXYY=           -181.1261 XXZZ=           -149.2775 YYZZ=           -113.6843
 XXYZ=              0.0012 YYXZ=              0.9836 ZZXY=              0.0317
 N-N= 3.442387009760D+02 E-N=-1.326867168244D+03  KE= 2.746233763722D+02
 R6APFD:  NTU= -4 IXU= 1 FactS= 1.050
 Calling FoFJK, ICntrl=      2127 FMM=F ISym2X=0 I1Cent= 0 IOpClX= 0 NMat=1 NMatS=1 NMatT=0.
 ***** Axes restored to original set *****
 -------------------------------------------------------------------
 Center     Atomic                   Forces (Hartrees/Bohr)
 Number     Number              X              Y              Z
 -------------------------------------------------------------------
      1        6           0.002939620    0.000006163   -0.001096702
      2        6           0.000464000    0.000036555    0.004987938
      3        6          -0.004476021   -0.001914149    0.001682913
      4        6          -0.004713214    0.001843959    0.001614690
      5        6          -0.003447583   -0.000004336   -0.003082225
      6        6           0.003926600    0.000450951   -0.002550545
      7        6           0.003887331   -0.000316029   -0.002396104
      8        1           0.004345256    0.000001189   -0.003567628
      9        1          -0.001540149    0.001255224    0.000633565
     10        1          -0.000974023    0.000036461   -0.002379972
     11        1           0.000810493   -0.002127478    0.000883054
     12        1          -0.001510937   -0.001340799    0.000627334
     13        1           0.000812604    0.002053862    0.000996709
     14        1          -0.000895870    0.000090892   -0.002338864
     15        1          -0.001348332   -0.001950299    0.000380060
     16        1          -0.001386947    0.001929756    0.000506987
     17        1           0.001598525    0.000089910   -0.001825032
     18        1           0.001145840    0.002220544    0.000710320
     19        1          -0.000794536   -0.001379634    0.000081184
     20        1           0.000357663   -0.000147269    0.002758100
     21        1           0.000343995    0.000229401    0.002669691
     22        1           0.001206361   -0.002366015    0.000687182
     23        1          -0.000750677    0.001301139    0.000017347
 -------------------------------------------------------------------
 Cartesian Forces:  Max     0.004987938 RMS     0.001981849

 GradGradGradGradGradGradGradGradGradGradGradGradGradGradGradGradGradGrad
 Berny optimization.
 FormGI is forming the generalized inverse of G from B-inverse, IUseBI=4.
 Internal  Forces:  Max     0.014528187 RMS     0.002075301
 Search for a local minimum.
 Step number   1 out of a maximum of  128
 All quantities printed in internal units (Hartrees-Bohrs-Radians)
 Mixed Optimization -- RFO/linear search
 Second derivative matrix not updated -- first step.
 ITU=  0
     Eigenvalues ---    0.00230   0.00230   0.00230   0.00232   0.00288
     Eigenvalues ---    0.00288   0.03113   0.04259   0.04485   0.04642
     Eigenvalues ---    0.05212   0.05261   0.05280   0.05280   0.05306
     Eigenvalues ---    0.05307   0.05357   0.05409   0.05410   0.05428
     Eigenvalues ---    0.05525   0.05527   0.14302   0.14427   0.16000
     Eigenvalues ---    0.16000   0.16000   0.16000   0.16000   0.16000
     Eigenvalues ---    0.16000   0.16000   0.16000   0.16000   0.16000
     Eigenvalues ---    0.16000   0.16000   0.16000   0.16000   0.16772
     Eigenvalues ---    0.17839   0.25938   0.28131   0.28140   0.28486
     Eigenvalues ---    0.28862   0.28867   0.33757   0.34070   0.34081
     Eigenvalues ---    0.34088   0.34114   0.34119   0.34170   0.34173
     Eigenvalues ---    0.34271   0.34280   0.34301   0.34302   0.34330
     Eigenvalues ---    0.34341   0.34411   0.34434
 RFO step:  Lambda=-3.02064419D-03 EMin= 2.30000000D-03
 Linear search not attempted -- first point.
 Iteration  1 RMS(Cart)=  0.04120140 RMS(Int)=  0.00034693
 Iteration  2 RMS(Cart)=  0.00048960 RMS(Int)=  0.00018505
 Iteration  3 RMS(Cart)=  0.00000010 RMS(Int)=  0.00018505
 Variable       Old X    -DE/DX   Delta X   Delta X   Delta X     New X
                                 (Linear)    (Quad)   (Total)
    R1        2.96880  -0.01453   0.00000  -0.05537  -0.05537   2.91344
    R2        2.91833  -0.00537   0.00000  -0.01889  -0.01889   2.89944
    R3        2.91853  -0.00541   0.00000  -0.01901  -0.01901   2.89952
    R4        2.91088  -0.00454   0.00000  -0.01575  -0.01575   2.89513
    R5        2.90292  -0.00112   0.00000  -0.00384  -0.00384   2.89908
    R6        2.90282  -0.00114   0.00000  -0.00392  -0.00392   2.89890
    R7        2.07743   0.00346   0.00000   0.01016   0.01016   2.08758
    R8        2.06875   0.00184   0.00000   0.00531   0.00531   2.07406
    R9        2.07039   0.00249   0.00000   0.00721   0.00721   2.07760
   R10        2.07193   0.00103   0.00000   0.00300   0.00300   2.07493
   R11        2.06860   0.00189   0.00000   0.00547   0.00547   2.07406
   R12        2.07182   0.00106   0.00000   0.00308   0.00308   2.07490
   R13        2.07044   0.00243   0.00000   0.00705   0.00705   2.07749
   R14        2.06825   0.00229   0.00000   0.00663   0.00663   2.07488
   R15        2.06823   0.00234   0.00000   0.00675   0.00675   2.07499
   R16        2.07212   0.00111   0.00000   0.00322   0.00322   2.07535
   R17        2.06642   0.00206   0.00000   0.00594   0.00594   2.07236
   R18        2.07130   0.00077   0.00000   0.00225   0.00225   2.07355
   R19        2.06758   0.00273   0.00000   0.00788   0.00788   2.07546
   R20        2.06776   0.00263   0.00000   0.00760   0.00760   2.07536
   R21        2.06604   0.00224   0.00000   0.00644   0.00644   2.07248
   R22        2.07138   0.00074   0.00000   0.00215   0.00215   2.07353
    A1        1.92417  -0.00096   0.00000  -0.01544  -0.01526   1.90891
    A2        1.92417  -0.00104   0.00000  -0.01628  -0.01611   1.90807
    A3        1.96500  -0.00075   0.00000  -0.01709  -0.01697   1.94803
    A4        1.87155   0.00135   0.00000   0.02218   0.02183   1.89338
    A5        1.88815   0.00076   0.00000   0.01479   0.01432   1.90247
    A6        1.88787   0.00080   0.00000   0.01481   0.01432   1.90219
    A7        1.98843  -0.00233   0.00000  -0.02406  -0.02393   1.96449
    A8        1.98857  -0.00248   0.00000  -0.02508  -0.02495   1.96362
    A9        1.87203  -0.00042   0.00000  -0.02206  -0.02157   1.85046
   A10        1.88949   0.00359   0.00000   0.01936   0.01848   1.90797
   A11        1.85784   0.00097   0.00000   0.02947   0.02865   1.88650
   A12        1.85847   0.00101   0.00000   0.02929   0.02845   1.88692
   A13        1.95322  -0.00028   0.00000  -0.00116  -0.00116   1.95205
   A14        1.93943  -0.00016   0.00000  -0.00161  -0.00163   1.93780
   A15        1.94014  -0.00281   0.00000  -0.01715  -0.01718   1.92296
   A16        1.88779   0.00022   0.00000   0.00114   0.00114   1.88893
   A17        1.86276   0.00179   0.00000   0.01222   0.01221   1.87497
   A18        1.87688   0.00145   0.00000   0.00782   0.00778   1.88466
   A19        1.95331  -0.00025   0.00000  -0.00090  -0.00090   1.95241
   A20        1.94025  -0.00280   0.00000  -0.01725  -0.01728   1.92297
   A21        1.93931  -0.00017   0.00000  -0.00156  -0.00158   1.93773
   A22        1.86323   0.00174   0.00000   0.01167   0.01166   1.87489
   A23        1.88709   0.00024   0.00000   0.00167   0.00167   1.88876
   A24        1.87704   0.00143   0.00000   0.00761   0.00757   1.88461
   A25        1.95132  -0.00028   0.00000  -0.00121  -0.00123   1.95009
   A26        1.95115  -0.00020   0.00000  -0.00079  -0.00081   1.95035
   A27        1.93441  -0.00284   0.00000  -0.01834  -0.01838   1.91603
   A28        1.88624   0.00044   0.00000   0.00436   0.00436   1.89061
   A29        1.86804   0.00157   0.00000   0.00885   0.00882   1.87686
   A30        1.86860   0.00152   0.00000   0.00840   0.00836   1.87696
   A31        1.95117   0.00158   0.00000   0.01240   0.01240   1.96357
   A32        1.92725  -0.00135   0.00000  -0.00695  -0.00701   1.92024
   A33        1.95219  -0.00108   0.00000  -0.01066  -0.01069   1.94149
   A34        1.86125   0.00080   0.00000   0.01276   0.01274   1.87399
   A35        1.89399  -0.00056   0.00000  -0.00581  -0.00577   1.88822
   A36        1.87405   0.00067   0.00000  -0.00115  -0.00126   1.87280
   A37        1.95199  -0.00116   0.00000  -0.01112  -0.01115   1.94084
   A38        1.95161   0.00160   0.00000   0.01239   0.01239   1.96400
   A39        1.92693  -0.00128   0.00000  -0.00648  -0.00654   1.92038
   A40        1.89399  -0.00053   0.00000  -0.00575  -0.00572   1.88828
   A41        1.87353   0.00070   0.00000  -0.00079  -0.00088   1.87264
   A42        1.86187   0.00074   0.00000   0.01233   0.01230   1.87417
    D1       -1.00461   0.00066   0.00000  -0.00338  -0.00326  -1.00787
    D2        3.09882  -0.00023   0.00000   0.01159   0.01146   3.11028
    D3        1.04667   0.00023   0.00000   0.00452   0.00451   1.05118
    D4       -3.06765   0.00022   0.00000  -0.01113  -0.01099  -3.07864
    D5        1.03578  -0.00067   0.00000   0.00384   0.00373   1.03950
    D6       -1.01637  -0.00020   0.00000  -0.00323  -0.00322  -1.01959
    D7        1.10565   0.00044   0.00000  -0.00697  -0.00685   1.09880
    D8       -1.07412  -0.00045   0.00000   0.00800   0.00787  -1.06624
    D9       -3.12626   0.00002   0.00000   0.00093   0.00092  -3.12534
   D10        1.18571  -0.00009   0.00000  -0.00327  -0.00326   1.18245
   D11       -0.92674  -0.00006   0.00000  -0.00279  -0.00277  -0.92951
   D12       -3.01644   0.00009   0.00000  -0.00017  -0.00017  -3.01660
   D13       -3.00238  -0.00107   0.00000  -0.01836  -0.01847  -3.02085
   D14        1.16835  -0.00104   0.00000  -0.01789  -0.01798   1.15037
   D15       -0.92135  -0.00089   0.00000  -0.01526  -0.01537  -0.93672
   D16       -0.96989   0.00095   0.00000   0.01806   0.01815  -0.95174
   D17       -3.08234   0.00098   0.00000   0.01853   0.01863  -3.06371
   D18        1.11115   0.00113   0.00000   0.02115   0.02124   1.13239
   D19       -1.17923   0.00010   0.00000   0.00671   0.00671  -1.17252
   D20        3.02220  -0.00004   0.00000   0.00421   0.00420   3.02640
   D21        0.93231   0.00013   0.00000   0.00713   0.00711   0.93942
   D22        3.00887   0.00103   0.00000   0.02127   0.02138   3.03025
   D23        0.92711   0.00089   0.00000   0.01877   0.01888   0.94599
   D24       -1.16278   0.00106   0.00000   0.02169   0.02178  -1.14099
   D25        0.97619  -0.00096   0.00000  -0.01513  -0.01522   0.96096
   D26       -1.10557  -0.00110   0.00000  -0.01764  -0.01772  -1.12330
   D27        3.08773  -0.00094   0.00000  -0.01471  -0.01482   3.07291
   D28        1.06420   0.00010   0.00000   0.00349   0.00348   1.06768
   D29       -1.05321  -0.00013   0.00000  -0.00071  -0.00071  -1.05391
   D30       -3.13639  -0.00001   0.00000   0.00154   0.00154  -3.13485
   D31       -3.08823  -0.00106   0.00000  -0.01678  -0.01684  -3.10508
   D32        1.07754  -0.00130   0.00000  -0.02098  -0.02103   1.05651
   D33       -1.00564  -0.00117   0.00000  -0.01873  -0.01879  -1.02443
   D34       -1.06635   0.00134   0.00000   0.02480   0.02485  -1.04150
   D35        3.09943   0.00110   0.00000   0.02060   0.02066   3.12009
   D36        1.01624   0.00123   0.00000   0.02285   0.02291   1.03915
   D37        1.03502  -0.00024   0.00000  -0.01287  -0.01290   1.02212
   D38        3.10420   0.00089   0.00000   0.00651   0.00648   3.11068
   D39       -1.09305   0.00012   0.00000  -0.00659  -0.00657  -1.09962
   D40       -3.01648  -0.00237   0.00000  -0.04883  -0.04908  -3.06556
   D41       -0.94730  -0.00125   0.00000  -0.02945  -0.02970  -0.97700
   D42        1.13863  -0.00202   0.00000  -0.04255  -0.04275   1.09589
   D43       -1.02443   0.00097   0.00000   0.00863   0.00886  -1.01557
   D44        1.04476   0.00209   0.00000   0.02801   0.02824   1.07299
   D45        3.13069   0.00132   0.00000   0.01491   0.01519  -3.13731
   D46        1.10819  -0.00006   0.00000   0.01059   0.01058   1.11876
   D47       -1.02005   0.00031   0.00000   0.01714   0.01717  -1.00288
   D48       -3.09007  -0.00080   0.00000  -0.00201  -0.00197  -3.09204
   D49       -1.12342   0.00199   0.00000   0.04598   0.04617  -1.07724
   D50        3.03153   0.00236   0.00000   0.05252   0.05277   3.08430
   D51        0.96151   0.00125   0.00000   0.03338   0.03363   0.99514
   D52       -3.11506  -0.00133   0.00000  -0.01162  -0.01191  -3.12697
   D53        1.03989  -0.00096   0.00000  -0.00508  -0.00531   1.03457
   D54       -1.03013  -0.00207   0.00000  -0.02422  -0.02445  -1.05459
         Item               Value     Threshold  Converged?
 Maximum Force            0.014528     0.000450     NO 
 RMS     Force            0.002075     0.000300     NO 
 Maximum Displacement     0.126898     0.001800     NO 
 RMS     Displacement     0.041237     0.001200     NO 
 Predicted change in Energy=-1.582267D-03
 GradGradGradGradGradGradGradGradGradGradGradGradGradGradGradGradGradGrad

                          Input orientation:                          
 ---------------------------------------------------------------------
 Center     Atomic      Atomic             Coordinates (Angstroms)
 Number     Number       Type             X           Y           Z
 ---------------------------------------------------------------------
      1          6           0        0.630077    0.000140   -0.010016
      2          6           0       -0.849835    0.000347   -0.442185
      3          6           0        1.320198    1.256586   -0.557015
      4          6           0        1.329920   -1.233278   -0.595816
      5          6           0        0.772572   -0.023313    1.515198
      6          6           0       -1.600927    1.251542    0.031024
      7          6           0       -1.599992   -1.251242    0.031147
      8          1           0       -0.844907    0.000556   -1.546876
      9          1           0        0.943006    2.170187   -0.079879
     10          1           0        1.170125    1.348277   -1.642276
     11          1           0        2.400576    1.208368   -0.367067
     12          1           0        0.953454   -2.164985   -0.154450
     13          1           0        2.408609   -1.187234   -0.396087
     14          1           0        1.188404   -1.287052   -1.684704
     15          1           0        0.324747   -0.925884    1.951519
     16          1           0        0.304634    0.854011    1.981053
     17          1           0        1.836022   -0.015921    1.789280
     18          1           0       -1.150616    2.178419   -0.344141
     19          1           0       -2.638496    1.223939   -0.324926
     20          1           0       -1.633062    1.305390    1.127517
     21          1           0       -1.648116   -1.294596    1.127469
     22          1           0       -1.138349   -2.178876   -0.328231
     23          1           0       -2.632343   -1.233578   -0.340240
 ---------------------------------------------------------------------
                    Distance matrix (angstroms):
                    1          2          3          4          5
     1  C    0.000000
     2  C    1.541724   0.000000
     3  C    1.534318   2.510054   0.000000
     4  C    1.534360   2.509336   2.490185   0.000000
     5  C    1.532035   2.542463   2.496418   2.496204   0.000000
     6  C    2.558334   1.534130   2.979730   3.893215   3.075960
     7  C    2.557510   1.534032   3.893924   2.996296   3.056023
     8  H    2.130145   1.104701   2.691675   2.675207   3.463106
     9  H    2.193607   2.837914   1.097543   3.464025   2.717492
    10  H    2.184811   2.708759   1.099418   2.790168   3.465393
    11  H    2.173008   3.468448   1.098007   2.675867   2.776752
    12  H    2.193900   2.832544   3.464637   1.097547   2.721618
    13  H    2.173035   3.468419   2.680073   1.097990   2.772064
    14  H    2.184759   2.712134   2.785524   1.099361   3.465447
    15  H    2.190517   2.822653   3.470856   2.755682   1.097979
    16  H    2.190745   2.816670   2.763192   3.471058   1.098036
    17  H    2.166109   3.491924   2.718538   2.725213   1.098226
    18  H    2.833268   2.200927   2.645754   4.225645   3.464595
    19  H    3.504343   2.170307   3.965626   4.675427   4.071496
    20  H    2.849467   2.186447   3.400262   4.265440   2.775397
    21  H    2.856637   2.185851   4.261092   3.441245   2.761562
    22  H    2.824305   2.201190   4.230744   2.656710   3.419986
    23  H    3.503497   2.170322   4.676590   3.970497   4.062123
                    6          7          8          9         10
     6  C    0.000000
     7  C    2.502784   0.000000
     8  H    2.150883   2.151118   0.000000
     9  H    2.706992   4.264428   3.171122   0.000000
    10  H    3.238521   4.151071   2.426068   1.779945   0.000000
    11  H    4.021488   4.713045   3.658404   1.769769   1.777567
    12  H    4.269885   2.718355   3.140465   4.335826   3.821464
    13  H    4.712370   4.031812   3.649729   3.676990   3.084744
    14  H    4.143495   3.274230   2.410661   3.819448   2.635734
    15  H    3.483921   2.738303   3.803307   3.754262   4.336108
    16  H    2.755324   3.444100   3.807376   2.527307   3.757911
    17  H    4.063317   4.052560   4.279905   3.011694   3.752337
    18  H    1.096645   3.479275   2.506614   2.110250   2.785701
    19  H    1.097274   2.707729   2.491342   3.712491   4.031930
    20  H    1.098285   2.781994   3.078337   2.973518   3.940997
    21  H    2.772586   1.098234   3.078097   4.491806   4.753814
    22  H    3.480059   1.096710   2.514185   4.827843   4.415492
    23  H    2.716151   1.097264   2.484750   4.943332   4.777032
                   11         12         13         14         15
    11  H    0.000000
    12  H    3.676802   0.000000
    13  H    2.395791   1.769707   0.000000
    14  H    3.071261   1.779788   1.777469   0.000000
    15  H    3.773584   2.523043   3.149927   3.754792   0.000000
    16  H    3.167366   3.754421   3.774147   4.336240   1.780253
    17  H    2.543115   3.029107   2.544732   3.755496   1.771526
    18  H    3.681370   4.829933   4.898816   4.390628   4.133213
    19  H    5.039271   4.941251   5.593933   4.774854   4.311003
    20  H    4.302723   4.514090   4.986948   4.752896   3.080679
    21  H    4.989025   3.028045   4.334717   3.994274   2.169607
    22  H    4.898869   2.099055   3.683594   2.837102   2.984611
    23  H    5.594112   3.709444   5.041474   4.050747   3.753827
                   16         17         18         19         20
    16  H    0.000000
    17  H    1.771640   0.000000
    18  H    3.046037   4.276286   0.000000
    19  H    3.757180   5.101806   1.767820   0.000000
    20  H    2.164933   3.770721   1.777839   1.768367   0.000000
    21  H    3.026276   3.769910   3.804599   3.071371   2.600029
    22  H    4.075954   4.243714   4.357341   3.718817   3.808419
    23  H    4.286288   5.097434   3.719846   2.457572   3.098263
                   21         22         23
    21  H    0.000000
    22  H    1.777886   0.000000
    23  H    1.768218   1.767979   0.000000
 Stoichiometry    C7H16
 Framework group  C1[X(C7H16)]
 Deg. of freedom    63
 Full point group                 C1      NOp   1
 Largest Abelian subgroup         C1      NOp   1
 Largest concise Abelian subgroup C1      NOp   1
                         Standard orientation:                         
 ---------------------------------------------------------------------
 Center     Atomic      Atomic             Coordinates (Angstroms)
 Number     Number       Type             X           Y           Z
 ---------------------------------------------------------------------
      1          6           0        0.632890    0.000255   -0.001916
      2          6           0       -0.833773    0.000093   -0.477113
      3          6           0        1.338265    1.257077   -0.528202
      4          6           0        1.349953   -1.232773   -0.567357
      5          6           0        0.730798   -0.023567    1.526802
      6          6           0       -1.598783    1.250912   -0.025707
      7          6           0       -1.597009   -1.251871   -0.026214
      8          1           0       -0.796592    0.000605   -1.581188
      9          1           0        0.946994    2.170424   -0.062042
     10          1           0        1.219912    1.349015   -1.617358
     11          1           0        2.412652    1.209162   -0.306801
     12          1           0        0.961074   -2.164724   -0.137416
     13          1           0        2.422335   -1.186429   -0.336205
     14          1           0        1.240310   -1.286296   -1.659926
     15          1           0        0.270728   -0.926404    1.949624
     16          1           0        0.249162    0.853476    1.979026
     17          1           0        1.785789   -0.015900    1.831820
     18          1           0       -1.138022    2.178039   -0.387319
     19          1           0       -2.625506    1.223065   -0.411807
     20          1           0       -1.662938    1.304451    1.069395
     21          1           0       -1.677109   -1.295540    1.068224
     22          1           0       -1.124757   -2.179255   -0.372205
     23          1           0       -2.618082   -1.234446   -0.427581
 ---------------------------------------------------------------------
 Rotational constants (GHZ):           2.9998718           2.2252667           1.8365181
 Standard basis: 6-311++G(d,p) (5D, 7F)
 There are   273 symmetry adapted cartesian basis functions of A   symmetry.
 There are   266 symmetry adapted basis functions of A   symmetry.
   266 basis functions,   396 primitive gaussians,   273 cartesian basis functions
    29 alpha electrons       29 beta electrons
       nuclear repulsion energy       347.2458058335 Hartrees.
 NAtoms=   23 NActive=   23 NUniq=   23 SFac= 1.00D+00 NAtFMM=   60 NAOKFM=F Big=F
 Integral buffers will be    131072 words long.
 Raffenetti 2 integral format.
 Two-electron integral symmetry is turned on.
 R6APFD:  NTU= -4 IXU= 1 FactS= 1.050
 Nuclear repulsion after empirical dispersion term =      347.2282008004 Hartrees.
 One-electron integrals computed using PRISM.
 NBasis=   266 RedAO= T EigKep=  8.94D-06  NBF=   266
 NBsUse=   266 1.00D-06 EigRej= -1.00D+00 NBFU=   266
 Initial guess from the checkpoint file:  "TPTE0164.chk"
 B after Tr=     0.000000   -0.000000    0.000000
         Rot=    0.999968   -0.000124    0.008057   -0.000109 Ang=  -0.92 deg.
 ExpMin= 3.60D-02 ExpMax= 4.56D+03 ExpMxC= 6.82D+02 IAcc=3 IRadAn=         5 AccDes= 0.00D+00
 Harris functional with IExCor= 1009 and IRadAn=       5 diagonalized for initial guess.
 HarFok:  IExCor= 1009 AccDes= 0.00D+00 IRadAn=         5 IDoV= 1 UseB2=F ITyADJ=14
 ICtDFT=  3500011 ScaDFX=  1.000000  1.000000  1.000000  1.000000
 FoFCou: FMM=F IPFlag=           0 FMFlag=      100000 FMFlg1=           0
         NFxFlg=           0 DoJE=T BraDBF=F KetDBF=T FulRan=T
         wScrn=  0.000000 ICntrl=       500 IOpCl=  0 I1Cent=   200000004 NGrid=           0
         NMat0=    1 NMatS0=      1 NMatT0=    0 NMatD0=    1 NMtDS0=    0 NMtDT0=    0
 Petite list used in FoFCou.
 Requested convergence on RMS density matrix=1.00D-08 within  32 cycles.
 Requested convergence on MAX density matrix=1.00D-06.
 Requested convergence on             energy=1.00D-06.
 No special actions if energy rises.
 SCF Done:  E(RM08HX) =  -276.424400108     A.U. after   10 cycles
            NFock= 10  Conv=0.59D-08     -V/T= 2.0063
 QCSCF skips out because SCF is already converged.
 R6APFD:  NTU= -4 IXU= 1 FactS= 1.050
 Calling FoFJK, ICntrl=      2127 FMM=F ISym2X=0 I1Cent= 0 IOpClX= 0 NMat=1 NMatS=1 NMatT=0.
 ***** Axes restored to original set *****
 -------------------------------------------------------------------
 Center     Atomic                   Forces (Hartrees/Bohr)
 Number     Number              X              Y              Z
 -------------------------------------------------------------------
      1        6           0.001932116   -0.000010907   -0.000133517
      2        6          -0.003353350    0.000023079    0.001160565
      3        6           0.001892725   -0.000071044    0.000746314
      4        6           0.001819578    0.000017083    0.000719452
      5        6           0.001591441   -0.000038466    0.001263232
      6        6          -0.002025622   -0.000363254   -0.001991277
      7        6          -0.002084313    0.000344194   -0.001961723
      8        1          -0.000633061    0.000040246   -0.000149986
      9        1           0.000599293   -0.000631875   -0.000219396
     10        1          -0.000089067   -0.000009599    0.000025602
     11        1           0.000345340    0.000281369   -0.000277332
     12        1           0.000654870    0.000663863   -0.000228211
     13        1           0.000365409   -0.000303054   -0.000264877
     14        1          -0.000047634    0.000034211    0.000037623
     15        1           0.000637244    0.000431378   -0.000085462
     16        1           0.000556060   -0.000423170   -0.000096681
     17        1           0.000132477    0.000021351    0.000390525
     18        1          -0.000595290   -0.000706543    0.000303733
     19        1          -0.000314836    0.000240275    0.000425427
     20        1          -0.000191947   -0.000260676   -0.000198963
     21        1          -0.000273150    0.000290512   -0.000211064
     22        1          -0.000613596    0.000704619    0.000354496
     23        1          -0.000304685   -0.000273593    0.000391518
 -------------------------------------------------------------------
 Cartesian Forces:  Max     0.003353350 RMS     0.000867399

 GradGradGradGradGradGradGradGradGradGradGradGradGradGradGradGradGradGrad
 Berny optimization.
 Using GEDIIS/GDIIS optimizer.
 FormGI is forming the generalized inverse of G from B-inverse, IUseBI=4.
 Internal  Forces:  Max     0.010499137 RMS     0.001273765
 Search for a local minimum.
 Step number   2 out of a maximum of  128
 All quantities printed in internal units (Hartrees-Bohrs-Radians)
 Mixed Optimization -- RFO/linear search
 Update second derivatives using D2CorX and points    1    2
 DE= -7.27D-04 DEPred=-1.58D-03 R= 4.59D-01
 Trust test= 4.59D-01 RLast= 1.83D-01 DXMaxT set to 3.00D-01
 ITU=  0  0
 Use linear search instead of GDIIS.
     Eigenvalues ---    0.00230   0.00230   0.00230   0.00232   0.00288
     Eigenvalues ---    0.00289   0.03411   0.04443   0.04686   0.04719
     Eigenvalues ---    0.04933   0.05248   0.05276   0.05277   0.05335
     Eigenvalues ---    0.05337   0.05477   0.05518   0.05521   0.05549
     Eigenvalues ---    0.05566   0.05983   0.14254   0.14479   0.15491
     Eigenvalues ---    0.16000   0.16000   0.16000   0.16000   0.16000
     Eigenvalues ---    0.16000   0.16000   0.16000   0.16000   0.16000
     Eigenvalues ---    0.16000   0.16000   0.16000   0.16038   0.16710
     Eigenvalues ---    0.18489   0.27519   0.28135   0.28397   0.28853
     Eigenvalues ---    0.28865   0.32915   0.33535   0.33962   0.34074
     Eigenvalues ---    0.34084   0.34108   0.34117   0.34147   0.34172
     Eigenvalues ---    0.34274   0.34281   0.34301   0.34310   0.34336
     Eigenvalues ---    0.34364   0.34423   0.36456
 RFO step:  Lambda=-2.23444250D-04 EMin= 2.29881517D-03
 Quartic linear search produced a step of -0.34157.
 Iteration  1 RMS(Cart)=  0.02543458 RMS(Int)=  0.00025034
 Iteration  2 RMS(Cart)=  0.00027379 RMS(Int)=  0.00004299
 Iteration  3 RMS(Cart)=  0.00000005 RMS(Int)=  0.00004299
 Variable       Old X    -DE/DX   Delta X   Delta X   Delta X     New X
                                 (Linear)    (Quad)   (Total)
    R1        2.91344   0.01050   0.01891   0.00328   0.02220   2.93563
    R2        2.89944   0.00079   0.00645  -0.00612   0.00034   2.89978
    R3        2.89952   0.00084   0.00649  -0.00604   0.00046   2.89998
    R4        2.89513   0.00174   0.00538  -0.00262   0.00276   2.89788
    R5        2.89908   0.00019   0.00131  -0.00118   0.00013   2.89922
    R6        2.89890   0.00029   0.00134  -0.00098   0.00035   2.89925
    R7        2.08758   0.00015  -0.00347   0.00455   0.00109   2.08867
    R8        2.07406  -0.00083  -0.00181   0.00064  -0.00117   2.07289
    R9        2.07760  -0.00001  -0.00246   0.00300   0.00054   2.07814
   R10        2.07493   0.00028  -0.00103   0.00180   0.00077   2.07571
   R11        2.07406  -0.00088  -0.00187   0.00061  -0.00126   2.07280
   R12        2.07490   0.00030  -0.00105   0.00187   0.00082   2.07572
   R13        2.07749  -0.00003  -0.00241   0.00290   0.00049   2.07798
   R14        2.07488  -0.00065  -0.00226   0.00154  -0.00072   2.07416
   R15        2.07499  -0.00062  -0.00231   0.00166  -0.00065   2.07434
   R16        2.07535   0.00023  -0.00110   0.00179   0.00069   2.07604
   R17        2.07236  -0.00095  -0.00203   0.00069  -0.00134   2.07102
   R18        2.07355   0.00015  -0.00077   0.00124   0.00047   2.07402
   R19        2.07546  -0.00021  -0.00269   0.00292   0.00023   2.07569
   R20        2.07536  -0.00021  -0.00260   0.00279   0.00019   2.07556
   R21        2.07248  -0.00097  -0.00220   0.00085  -0.00135   2.07114
   R22        2.07353   0.00015  -0.00073   0.00119   0.00046   2.07399
    A1        1.90891   0.00039   0.00521  -0.00117   0.00401   1.91292
    A2        1.90807   0.00046   0.00550  -0.00092   0.00454   1.91261
    A3        1.94803   0.00120   0.00579   0.00696   0.01273   1.96076
    A4        1.89338  -0.00089  -0.00746  -0.00400  -0.01138   1.88199
    A5        1.90247  -0.00061  -0.00489  -0.00070  -0.00553   1.89693
    A6        1.90219  -0.00062  -0.00489  -0.00047  -0.00531   1.89688
    A7        1.96449   0.00248   0.00818   0.00501   0.01315   1.97764
    A8        1.96362   0.00265   0.00852   0.00538   0.01386   1.97749
    A9        1.85046  -0.00149   0.00737  -0.01493  -0.00766   1.84280
   A10        1.90797  -0.00394  -0.00631  -0.00292  -0.00913   1.89884
   A11        1.88650   0.00013  -0.00979   0.00339  -0.00615   1.88035
   A12        1.88692   0.00012  -0.00972   0.00378  -0.00568   1.88124
   A13        1.95205   0.00014   0.00040   0.00017   0.00056   1.95262
   A14        1.93780  -0.00021   0.00056  -0.00165  -0.00109   1.93671
   A15        1.92296   0.00057   0.00587  -0.00494   0.00093   1.92390
   A16        1.88893   0.00003  -0.00039   0.00055   0.00016   1.88909
   A17        1.87497  -0.00035  -0.00417   0.00395  -0.00022   1.87475
   A18        1.88466  -0.00021  -0.00266   0.00228  -0.00037   1.88430
   A19        1.95241   0.00021   0.00031   0.00060   0.00091   1.95332
   A20        1.92297   0.00058   0.00590  -0.00502   0.00089   1.92386
   A21        1.93773  -0.00022   0.00054  -0.00166  -0.00111   1.93662
   A22        1.87489  -0.00039  -0.00398   0.00347  -0.00051   1.87438
   A23        1.88876   0.00002  -0.00057   0.00088   0.00031   1.88907
   A24        1.88461  -0.00023  -0.00259   0.00203  -0.00054   1.88406
   A25        1.95009   0.00023   0.00042   0.00077   0.00119   1.95128
   A26        1.95035   0.00021   0.00028   0.00085   0.00113   1.95147
   A27        1.91603   0.00032   0.00628  -0.00716  -0.00087   1.91516
   A28        1.89061  -0.00006  -0.00149   0.00279   0.00130   1.89190
   A29        1.87686  -0.00038  -0.00301   0.00150  -0.00150   1.87536
   A30        1.87696  -0.00037  -0.00286   0.00141  -0.00143   1.87553
   A31        1.96357   0.00028  -0.00424   0.00712   0.00288   1.96645
   A32        1.92024   0.00060   0.00240  -0.00054   0.00187   1.92211
   A33        1.94149  -0.00036   0.00365  -0.00666  -0.00299   1.93850
   A34        1.87399  -0.00030  -0.00435   0.00535   0.00100   1.87499
   A35        1.88822   0.00009   0.00197  -0.00193   0.00003   1.88825
   A36        1.87280  -0.00035   0.00043  -0.00342  -0.00296   1.86984
   A37        1.94084  -0.00035   0.00381  -0.00682  -0.00300   1.93784
   A38        1.96400   0.00033  -0.00423   0.00739   0.00315   1.96716
   A39        1.92038   0.00061   0.00223  -0.00039   0.00186   1.92225
   A40        1.88828   0.00007   0.00195  -0.00188   0.00006   1.88833
   A41        1.87264  -0.00037   0.00030  -0.00348  -0.00314   1.86950
   A42        1.87417  -0.00033  -0.00420   0.00506   0.00086   1.87503
    D1       -1.00787  -0.00087   0.00111   0.00666   0.00779  -1.00008
    D2        3.11028   0.00038  -0.00392   0.00244  -0.00152   3.10876
    D3        1.05118  -0.00028  -0.00154   0.00421   0.00266   1.05384
    D4       -3.07864  -0.00029   0.00375   0.01275   0.01655  -3.06209
    D5        1.03950   0.00096  -0.00127   0.00853   0.00725   1.04675
    D6       -1.01959   0.00030   0.00110   0.01030   0.01142  -1.00817
    D7        1.09880  -0.00060   0.00234   0.00948   0.01185   1.11065
    D8       -1.06624   0.00065  -0.00269   0.00527   0.00255  -1.06370
    D9       -3.12534  -0.00001  -0.00031   0.00703   0.00672  -3.11862
   D10        1.18245   0.00047   0.00111   0.03406   0.03517   1.21762
   D11       -0.92951   0.00047   0.00095   0.03440   0.03534  -0.89417
   D12       -3.01660   0.00050   0.00006   0.03584   0.03589  -2.98071
   D13       -3.02085   0.00072   0.00631   0.02992   0.03624  -2.98460
   D14        1.15037   0.00073   0.00614   0.03026   0.03642   1.18679
   D15       -0.93672   0.00076   0.00525   0.03169   0.03696  -0.89976
   D16       -0.95174  -0.00088  -0.00620   0.02666   0.02045  -0.93129
   D17       -3.06371  -0.00087  -0.00636   0.02700   0.02062  -3.04309
   D18        1.13239  -0.00084  -0.00725   0.02843   0.02117   1.15356
   D19       -1.17252  -0.00049  -0.00229  -0.02783  -0.03012  -1.20264
   D20        3.02640  -0.00052  -0.00144  -0.02924  -0.03067   2.99573
   D21        0.93942  -0.00047  -0.00243  -0.02744  -0.02986   0.90956
   D22        3.03025  -0.00070  -0.00730  -0.02353  -0.03086   2.99939
   D23        0.94599  -0.00073  -0.00645  -0.02494  -0.03141   0.91458
   D24       -1.14099  -0.00068  -0.00744  -0.02315  -0.03060  -1.17160
   D25        0.96096   0.00089   0.00520  -0.02013  -0.01492   0.94604
   D26       -1.12330   0.00086   0.00605  -0.02154  -0.01547  -1.13877
   D27        3.07291   0.00091   0.00506  -0.01974  -0.01467   3.05824
   D28        1.06768   0.00017  -0.00119   0.01022   0.00904   1.07672
   D29       -1.05391  -0.00007   0.00024   0.00547   0.00570  -1.04821
   D30       -3.13485   0.00005  -0.00052   0.00788   0.00735  -3.12750
   D31       -3.10508   0.00102   0.00575   0.01274   0.01850  -3.08657
   D32        1.05651   0.00078   0.00718   0.00798   0.01517   1.07168
   D33       -1.02443   0.00090   0.00642   0.01039   0.01682  -1.00761
   D34       -1.04150  -0.00076  -0.00849   0.00725  -0.00125  -1.04274
   D35        3.12009  -0.00100  -0.00706   0.00249  -0.00458   3.11551
   D36        1.03915  -0.00088  -0.00782   0.00490  -0.00293   1.03622
   D37        1.02212  -0.00088   0.00441  -0.01167  -0.00724   1.01488
   D38        3.11068  -0.00066  -0.00221  -0.00061  -0.00279   3.10789
   D39       -1.09962  -0.00094   0.00224  -0.00940  -0.00715  -1.10677
   D40       -3.06556   0.00139   0.01676  -0.00321   0.01360  -3.05196
   D41       -0.97700   0.00160   0.01015   0.00785   0.01805  -0.95895
   D42        1.09589   0.00133   0.01460  -0.00094   0.01369   1.10958
   D43       -1.01557  -0.00056  -0.00303   0.00162  -0.00147  -1.01704
   D44        1.07299  -0.00035  -0.00964   0.01268   0.00298   1.07597
   D45       -3.13731  -0.00062  -0.00519   0.00389  -0.00138  -3.13868
   D46        1.11876   0.00093  -0.00361   0.02067   0.01705   1.13581
   D47       -1.00288   0.00085  -0.00587   0.02280   0.01691  -0.98597
   D48       -3.09204   0.00063   0.00067   0.01181   0.01245  -3.07959
   D49       -1.07724  -0.00124  -0.01577   0.01242  -0.00338  -1.08063
   D50        3.08430  -0.00132  -0.01803   0.01456  -0.00352   3.08078
   D51        0.99514  -0.00154  -0.01149   0.00356  -0.00798   0.98716
   D52       -3.12697   0.00070   0.00407   0.00784   0.01199  -3.11498
   D53        1.03457   0.00062   0.00181   0.00997   0.01185   1.04643
   D54       -1.05459   0.00040   0.00835  -0.00102   0.00739  -1.04720
         Item               Value     Threshold  Converged?
 Maximum Force            0.010499     0.000450     NO 
 RMS     Force            0.001274     0.000300     NO 
 Maximum Displacement     0.086696     0.001800     NO 
 RMS     Displacement     0.025430     0.001200     NO 
 Predicted change in Energy=-3.845645D-04
 GradGradGradGradGradGradGradGradGradGradGradGradGradGradGradGradGradGrad

                          Input orientation:                          
 ---------------------------------------------------------------------
 Center     Atomic      Atomic             Coordinates (Angstroms)
 Number     Number       Type             X           Y           Z
 ---------------------------------------------------------------------
      1          6           0        0.634073   -0.001182   -0.001675
      2          6           0       -0.857110   -0.001095   -0.437150
      3          6           0        1.329966    1.252638   -0.547887
      4          6           0        1.342616   -1.227195   -0.593165
      5          6           0        0.796137   -0.028219    1.522993
      6          6           0       -1.621908    1.249215    0.016258
      7          6           0       -1.624958   -1.245624    0.026947
      8          1           0       -0.843706   -0.005267   -1.542337
      9          1           0        0.981227    2.164386   -0.047549
     10          1           0        1.151714    1.362836   -1.627439
     11          1           0        2.414689    1.184749   -0.388859
     12          1           0        0.992974   -2.161630   -0.137393
     13          1           0        2.425025   -1.161441   -0.418244
[...]
 013486,-0.00015468,0.00095795,0.00054944,-0.01348458,0.02458135,-0.302
 52777,0.00250934,-0.00352593,-0.00015977,0.00016086,-0.00007144,0.0004
 4657,0.00018206,0.00012739,0.00006834,0.00083560,-0.00004249,0.0007483
 0,0.00007908,-0.00001610,0.00032591,-0.00011917,-0.00080427,0.00033506
 ,0.00003856,-0.00012782,-0.00016586,-0.00091094,-0.00029704,-0.0067263
 6,0.00063474,0.00080565,-0.00702968,0.01350652,-0.02428505,0.32998317,
 0.00003973,0.00409348,-0.00059532,0.00034147,0.00054357,0.00045209,0.0
 0028278,0.00015427,0.00006779,0.00004140,-0.00028770,0.00019827,-0.068
 47365,-0.07081636,0.02469134,-0.00029171,0.00009413,0.00012940,-0.0012
 1748,0.00006288,-0.00087758,0.00004480,-0.00018243,0.00012820,-0.00013
 033,-0.00015539,-0.00012538,0.00045132,-0.00013591,-0.00008178,0.00038
 563,0.00021792,-0.00028543,0.00021324,0.00012239,0.00034822,-0.0001978
 8,-0.00021749,0.00001450,-0.00010926,0.00018187,-0.00009417,0.07354300
 ,-0.00012394,-0.00263925,0.00031933,-0.00069349,-0.00049900,0.00031204
 ,0.00078745,0.00091350,0.00096809,0.00038952,0.00083631,-0.00086115,-0
 .07000044,-0.26024708,0.07447144,0.00024164,-0.00002959,-0.00012556,-0
 .00140144,0.00030572,0.00028248,0.00017840,0.00006428,0.00004308,0.000
 00808,0.00043866,-0.00017716,-0.00032982,-0.00000588,0.00022241,-0.000
 06931,0.00001778,-0.00011767,-0.00026854,0.00032372,0.00019301,0.00003
 987,-0.00005188,0.00020034,0.00016379,0.00017513,0.00006895,0.07830039
 ,0.28070094,0.01107837,0.02916468,-0.00906911,0.00102840,0.00039149,0.
 00075503,-0.00177428,-0.00046097,-0.00679808,0.00001578,0.00156207,0.0
 0153632,0.02445760,0.07343527,-0.07188920,0.00004793,-0.00016674,-0.00
 009452,-0.00069108,0.00028975,0.00008372,0.00010628,-0.00010779,0.0000
 8558,-0.00022772,-0.00006592,0.00012318,0.00094610,0.00184857,-0.00082
 598,0.00010139,-0.00020039,0.00005247,-0.00003002,-0.00102489,-0.00047
 885,0.00005503,-0.00010516,-0.00002593,-0.00026929,-0.00011218,0.00040
 954,-0.02627572,-0.08221649,0.08024190,0.00189670,-0.00382964,-0.00202
 339,0.00002013,-0.00029652,0.00028697,-0.00036672,0.00033455,0.0002111
 9,0.00014555,-0.00030115,-0.00060857,-0.11779500,0.09639662,0.06642578
 ,-0.00051030,0.00032934,-0.00050736,0.00027140,-0.00016184,-0.00009270
 ,0.00015873,0.00007592,0.00015459,0.00009040,-0.00037422,0.00036133,0.
 00003346,-0.00022077,-0.00007417,0.00003731,0.00012738,0.00002105,-0.0
 0007099,0.00021398,0.00001021,0.00041652,-0.00019563,-0.00020404,0.000
 49657,0.00006519,-0.00017064,0.00505407,-0.00755776,-0.00596632,0.1261
 2058,-0.00312493,0.00097892,0.00077732,0.00084993,-0.00005545,-0.00055
 816,-0.00053384,0.00099021,0.00009890,-0.00034694,0.00083600,-0.000128
 27,0.09647631,-0.17440371,-0.08739764,0.00022752,-0.00037980,0.0000485
 5,0.00035410,-0.00018629,-0.00051085,-0.00023018,-0.00005640,-0.000004
 26,0.00024357,-0.00000572,-0.00011982,0.00003201,0.00006311,-0.0001878
 9,-0.00003486,-0.00002818,0.00007380,0.00002184,0.00033298,0.00027999,
 -0.00002475,-0.00007330,0.00020047,0.00027168,0.00026454,-0.00006755,0
 .01586084,-0.01792717,-0.01375387,-0.10750867,0.18665008,0.01799702,-0
 .02370694,-0.01393873,0.00099097,-0.00059542,0.00092098,-0.00018365,-0
 .00160573,0.00114258,-0.00151551,0.00213707,-0.00667730,0.06645050,-0.
 08713428,-0.10574183,-0.00005314,0.00001769,-0.00052286,-0.00024206,0.
 00006032,0.00004973,0.00017715,0.00013789,0.00020863,0.00012546,0.0010
 7584,0.00002122,-0.00030887,0.00016966,0.00023629,-0.00013860,0.000041
 88,0.00000996,-0.00019338,-0.00002713,0.00012188,0.00001551,0.00029977
 ,0.00017757,0.00093423,-0.00170622,-0.00116668,-0.00646601,0.00712442,
 0.00450091,-0.07215877,0.09657797,0.11669850,-0.00458091,-0.00008557,-
 0.00053545,0.00141042,-0.00006394,-0.00018862,0.00066698,-0.00023108,0
 .00087322,0.00041830,0.00003969,0.00045624,-0.28924156,-0.02911150,-0.
 06015391,0.00010404,-0.00017103,0.00006120,-0.00003594,0.00028447,0.00
 017252,-0.00020488,0.00001417,-0.00031666,-0.00021212,0.00009911,-0.00
 021652,0.00030963,0.00002883,0.00007023,0.00027933,0.00042161,-0.00028
 783,-0.00006090,0.00010159,-0.00000976,0.00025996,-0.00037021,-0.00027
 203,0.00026538,-0.00000831,-0.00008137,-0.00787124,0.00013479,-0.00181
 165,-0.01477248,-0.00288662,-0.00406003,0.31289373,0.00300776,-0.00100
 017,0.00118242,-0.00000273,-0.00032130,0.00088738,0.00089111,0.0002372
 6,0.00049881,-0.00079200,-0.00019165,-0.00012520,-0.02936563,-0.048801
 52,-0.00758366,0.00001198,0.00012484,-0.00005948,-0.00054170,0.0001497
 8,-0.00005778,0.00019902,0.00015130,0.00008276,0.00022806,-0.00014502,
 -0.00017132,-0.00005152,-0.00011595,-0.00024059,-0.00021365,0.00015640
 ,0.00039767,-0.00012758,0.00000254,-0.00002722,0.00025508,0.00007009,-
 0.00045900,0.00017082,-0.00008295,0.00010560,-0.02777897,-0.00236211,-
 0.00758029,0.02208299,0.00269137,0.00625913,0.03194728,0.04920652,-0.0
 3282559,-0.00322691,-0.00934799,0.00129120,0.00013122,-0.00661355,-0.0
 0124170,-0.00074141,0.00118131,-0.00118068,0.00062036,0.00125290,-0.05
 944513,-0.00734937,-0.05841192,0.00026214,-0.00049605,-0.00020767,0.00
 096229,0.00046305,-0.00034844,-0.00201523,0.00006790,-0.00073694,0.000
 11957,0.00012033,0.00003783,0.00024147,-0.00030655,0.00036528,0.000875
 23,0.00043194,-0.00042533,0.00010778,0.00003613,-0.00003542,0.00085194
 ,-0.00047919,-0.00032697,0.00031377,0.00024339,0.00030988,0.00996186,0
 .00027350,0.00142367,0.01507712,0.00292771,0.00311751,0.06685842,0.006
 97598,0.06769168,0.00084354,-0.00025913,-0.00049439,0.00629096,0.01145
 491,-0.01002239,-0.00221376,0.00022186,-0.00078823,0.00011800,-0.00014
 797,0.00021436,-0.00013331,-0.00010514,-0.00007743,-0.08062274,-0.0750
 0768,0.05174643,-0.00140634,0.00210038,0.00058315,0.00064020,-0.000802
 69,0.00001622,-0.00254858,0.00023854,-0.00056155,-0.00047277,0.0000050
 0,0.00045045,0.00009741,0.00016298,0.00010265,0.00004594,-0.00010394,-
 0.00000941,0.00003298,-0.00005011,-0.00002126,-0.00000126,0.00003380,0
 .00001263,0.00000064,-0.00003056,0.00008093,0.00000726,0.00005485,0.00
 003682,-0.00001965,0.00004095,-0.00001462,0.08853120,-0.00110161,-0.00
 029749,0.00009291,-0.01178126,-0.01902384,0.01465461,-0.00072664,0.000
 00982,0.00001875,-0.00002496,0.00012050,-0.00002507,0.00007553,0.00006
 411,-0.00011066,-0.07361901,-0.20511193,0.10781989,0.00437282,-0.00462
 108,-0.00201332,-0.00029162,0.00062876,-0.00050038,-0.00024390,0.00075
 087,0.00031936,0.00048302,-0.00013198,-0.00047890,-0.00025103,0.000523
 56,-0.00013197,-0.00009859,0.00015683,0.00000466,0.00011414,0.00002749
 ,-0.00002507,-0.00000868,-0.00002449,-0.00004583,-0.00004662,0.0000920
 5,-0.00015046,-0.00003649,-0.00001642,-0.00000301,0.00007655,0.0000181
 0,0.00006912,0.08094023,0.22417662,0.00029030,0.00068541,-0.00023508,-
 0.00419744,-0.00730900,0.00372741,0.00064377,0.00050517,0.00095629,-0.
 00025953,-0.00014334,0.00004077,-0.00019349,-0.00019105,-0.00026811,0.
 05057035,0.10822417,-0.11993379,0.00085954,-0.00154333,0.00006656,-0.0
 0053749,0.00014829,0.00053740,-0.00071330,-0.00026670,-0.00061766,0.00
 020560,0.00008159,-0.00019129,0.00016114,-0.00047938,-0.00016538,0.000
 00706,-0.00007074,-0.00002448,-0.00005817,0.00006556,-0.00001547,0.000
 01304,0.00000946,-0.00000311,-0.00000893,-0.00003214,0.00001484,0.0000
 8226,0.00022339,0.00016079,-0.00012127,0.00013588,0.00002628,-0.056186
 65,-0.11673002,0.12596526,0.00059260,0.00235305,0.00192282,-0.01548911
 ,-0.00176682,-0.00405204,0.00017313,0.00025247,-0.00034168,-0.00095873
 ,-0.00024012,-0.00055189,0.00012312,-0.00005520,0.00032084,-0.29426182
 ,-0.02534072,-0.05572896,0.00072262,-0.00162959,-0.00009949,-0.0000236
 2,0.00008980,0.00050091,0.00009656,0.00021493,0.00016218,0.00009222,-0
 .00003159,0.00000450,-0.00009191,0.00010645,0.00004301,0.00003231,0.00
 013125,-0.00002029,-0.00016128,0.00035651,0.00015858,0.00002016,-0.000
 03859,0.00004319,-0.00001400,0.00009744,-0.00006809,0.00008148,-0.0000
 8393,0.00005365,-0.00002798,0.00000486,-0.00006453,-0.01003371,-0.0004
 1929,-0.00266985,0.31971317,0.00088465,-0.00532854,-0.00197700,0.02849
 993,0.00135924,0.00791476,-0.00094177,-0.00076790,-0.00039112,0.001639
 21,0.00036112,0.00062766,0.00003323,-0.00000543,-0.00044865,-0.0264670
 3,-0.04707137,-0.00537052,0.00146514,0.00107483,0.00027804,-0.00057053
 ,0.00076969,-0.00023216,-0.00012923,0.00048807,0.00046247,0.00011249,-
 0.00004723,-0.00013977,-0.00008800,0.00036503,0.00006368,-0.00003376,0
 .00001269,0.00005163,0.00039101,-0.00044677,-0.00026599,-0.00003292,0.
 00001316,-0.00004815,0.00003034,-0.00001091,0.00002449,-0.00009063,0.0
 0005683,0.00012188,0.00002408,0.00001382,0.00012763,-0.02318742,-0.002
 12775,-0.00682682,0.02524056,0.05365347,0.00039600,-0.00113808,-0.0004
 8963,0.00826045,0.00076740,0.00126960,0.00026367,-0.00031654,0.0001074
 5,0.00033800,-0.00003881,0.00025885,0.00012035,-0.00020766,-0.00013470
 ,-0.05552903,-0.00497358,-0.05806103,-0.00016039,0.00036379,0.00023893
 ,0.00016739,0.00049616,0.00000807,0.00008376,0.00006321,-0.00021459,-0
 .00017020,0.00009661,0.00019940,0.00006000,-0.00010437,0.00005024,-0.0
 0001207,0.00001567,-0.00000549,0.00011373,-0.00009241,-0.00003472,-0.0
 0000626,0.00003431,0.00002013,-0.00010945,0.00013181,0.00005472,0.0000
 0729,0.00008785,0.00043243,-0.00004627,0.00011707,0.00012549,0.0172637
 6,0.00082847,0.00350828,0.06003564,0.00685807,0.05882423,0.00060249,-0
 .00045275,0.00074444,0.00094622,0.00342372,0.01735303,0.00010510,0.000
 10509,0.00036163,0.00003064,0.00002992,-0.00009542,-0.00051570,0.00053
 593,-0.00007840,-0.04606220,-0.00504383,-0.02060249,-0.00024536,-0.000
 83038,-0.00042798,-0.00117859,0.00320045,0.00081028,-0.00026859,-0.000
 40356,0.00002835,0.00007976,0.00009777,-0.00021338,0.00004349,-0.00014
 377,-0.00020834,0.00003271,-0.00006598,0.00000967,-0.00006178,-0.00002
 238,-0.00009198,0.00008855,-0.00006093,-0.00016237,0.00009953,-0.00016
 760,-0.00001549,-0.00113781,0.00079077,-0.00126416,0.00015821,-0.00018
 260,-0.00001076,0.00007523,0.00336464,0.01200937,-0.00145113,-0.006007
 09,-0.03088900,0.04835891,-0.00070808,0.00093102,-0.00024774,-0.003162
 90,-0.00607691,-0.02844670,0.00021322,0.00025356,0.00051931,-0.0001026
 6,0.00002748,0.00009638,0.00017348,-0.00034085,-0.00005959,-0.00510334
 ,-0.05693279,-0.05138110,0.00020576,0.00158378,-0.00146931,0.00261684,
 -0.00457545,-0.00093517,0.00013455,-0.00008573,-0.00013252,-0.00009125
 ,-0.00008656,-0.00005764,0.00003897,-0.00002093,-0.00010443,-0.0000461
 4,-0.00000965,-0.00003599,0.00009004,0.00000910,0.00011525,-0.00011488
 ,0.00006263,0.00018002,-0.00001455,-0.00000465,0.00001148,0.00084406,0
 .00024785,0.00087947,-0.00021483,0.00022024,0.00019137,0.00336641,0.00
 570393,0.02407128,-0.00002723,-0.00192693,-0.00311644,0.00201673,0.061
 21601,-0.00103322,-0.00039056,-0.00046924,0.00109567,-0.00204013,-0.00
 807463,0.00013489,-0.00033843,-0.00027764,0.00029674,0.00011207,0.0000
 1627,-0.00007097,0.00014166,-0.00051230,-0.02078197,-0.05102390,-0.291
 88506,0.00015310,0.00042058,0.00065184,0.00064025,-0.00149933,0.001240
 07,0.00032912,0.00027260,-0.00017317,-0.00016184,0.00002585,0.00026036
 ,0.00007923,0.00009775,0.00014499,-0.00003720,0.00003080,-0.00000365,0
 .00011874,-0.00007318,0.00001700,-0.00002121,0.00001447,0.00014614,-0.
 00015090,0.00017076,0.00005920,-0.00121301,0.00089356,0.00023066,-0.00
 000291,0.00010313,0.00026300,-0.00236239,-0.00415057,-0.01454103,0.000
 24251,-0.00060616,-0.00597190,0.02297162,0.05847151,0.31843940,0.00091
 090,0.00063942,0.00101522,-0.00234693,0.00283620,0.01753492,-0.0000258
 1,-0.00011353,-0.00028557,-0.00034062,0.00024445,-0.00016167,-0.000888
 08,-0.00029377,-0.00002886,0.00036388,0.00101075,-0.00043028,-0.049260
 30,0.00572080,0.03240532,-0.00125845,-0.00258906,0.00116873,-0.0000014
 5,-0.00005362,0.00001079,0.00008308,0.00014981,-0.00014480,-0.00005570
 ,0.00000490,-0.00006760,0.00000198,-0.00021491,0.00011392,-0.00011439,
 -0.00009001,0.00007206,0.00006889,-0.00004876,-0.00012959,-0.00222296,
 0.00022313,-0.00070515,-0.00015924,-0.00030073,-0.00024470,0.00023331,
 0.00014519,-0.00007754,-0.00023502,0.00014239,-0.00010210,-0.00011900,
 -0.00016074,-0.00025902,0.00036143,-0.00026183,-0.00030502,0.05304355,
 0.00071217,0.00041066,-0.00008128,-0.00255295,0.00288162,0.02638282,0.
 00009607,-0.00002481,0.00008464,0.00026160,-0.00037940,0.00008528,-0.0
 0062421,0.00082050,-0.00027286,-0.00007025,0.00176132,0.00120466,0.006
 16355,-0.05278152,-0.04169937,-0.00292104,-0.00372576,0.00222832,-0.00
 003918,-0.00002463,-0.00005256,0.00003970,0.00008084,-0.00008114,-0.00
 002201,-0.00001042,-0.00010575,-0.00001268,0.00025164,-0.00016884,0.00
 006141,0.00016208,-0.00007629,0.00005058,-0.00007996,-0.00003685,0.000
 05834,-0.00017481,-0.00009291,-0.00007594,-0.00031038,-0.00030924,0.00
 004480,-0.00025808,0.00004887,0.00003011,0.00031372,-0.00024557,0.0002
 4544,0.00008014,-0.00006258,-0.00016044,-0.00041690,-0.00061915,-0.003
 49602,0.05676067,-0.00077986,0.00017017,-0.00060434,0.00207141,-0.0011
 3126,-0.01472928,0.00015104,-0.00002950,0.00006914,-0.00000600,0.00000
 770,0.00008602,-0.00113066,0.00041011,-0.00025569,-0.00000092,-0.00102
 869,0.00097603,0.03296076,-0.04170816,-0.29436538,0.00164970,0.0023774
 3,0.00041746,0.00001477,0.00006192,0.00002585,-0.00004150,-0.00008719,
 0.00010265,0.00009226,0.00008204,0.00002380,-0.00004020,0.00007209,-0.
 00005834,0.00010965,0.00000763,0.00001658,-0.00007225,0.00003303,0.000
 12253,-0.00082422,-0.00069722,0.00009748,0.00024528,0.00019699,-0.0000
 6016,-0.00024066,-0.00036789,0.00043560,-0.00003871,-0.00005094,0.0004
 2237,-0.00007054,0.00018762,-0.00024446,-0.00016501,0.00090069,0.00020
 216,-0.03607696,0.04258061,0.32197942,0.00048222,0.00040021,-0.0006746
 2,0.00929068,-0.01437731,-0.00393207,0.00025657,0.00013251,0.00020036,
 -0.00146479,-0.00023575,0.00047234,0.00005970,0.00004491,-0.00010652,-
 0.00185577,-0.00244848,0.00137949,-0.10454181,0.10976179,0.01563878,0.
 00039509,0.00079395,-0.00016664,0.00005135,0.00010312,-0.00000332,0.00
 001086,-0.00000655,-0.00001469,0.00005605,0.00007197,-0.00001137,-0.00
 343157,-0.00023304,0.00093897,0.00017362,0.00002691,-0.00004887,0.0000
 6467,0.00008467,-0.00002793,-0.00005795,0.00003578,-0.00026523,-0.0000
 0829,0.00002234,0.00011102,0.00004083,0.00009172,0.00001019,0.00072938
 ,-0.00094637,-0.00004337,0.00034709,-0.00016095,0.00020017,-0.00009105
 ,0.00005531,0.00001750,-0.00261329,0.00177559,-0.00033326,0.11461596,0
 .00134218,-0.00039926,-0.00012358,0.01236542,-0.01938999,-0.00509211,-
 0.00004173,0.00020808,-0.00000303,0.00042975,-0.00059772,0.00016908,-0
 .00019576,-0.00018517,0.00007458,-0.00376016,-0.00328658,0.00368829,0.
 10893821,-0.24813418,-0.02829251,0.00003337,0.00037112,0.00043855,0.00
 009298,0.00015801,0.00007344,0.00008318,0.00001126,-0.00007790,-0.0001
 6156,0.00003377,-0.00000847,0.00023844,0.00120205,-0.00018811,0.000139
 36,0.00052709,-0.00010185,0.00004748,0.00007912,-0.00013535,-0.0001464
 8,-0.00005598,-0.00049487,0.00009130,0.00022170,0.00019652,-0.00005911
 ,0.00015832,-0.00008187,0.00074835,-0.00152247,-0.00047225,-0.00010976
 ,0.00040813,0.00002428,-0.00005172,0.00023856,-0.00011778,0.00152083,-
 0.00364498,0.00016425,-0.11976897,0.27088656,-0.00003115,-0.00054917,0
 .00050772,-0.00848175,0.01097697,0.00170671,-0.00016780,-0.00004838,-0
 .00014839,0.00016422,0.00002656,-0.00003375,0.00027409,-0.00066409,0.0
 0020178,0.00144808,0.00184229,-0.00068558,0.01562610,-0.02842360,-0.05
 055044,-0.00055783,-0.00034023,-0.00000254,-0.00002103,-0.00004890,-0.
 00001498,-0.00000887,0.00005674,-0.00003486,-0.00000459,-0.00004372,-0
 .00000074,0.00090480,0.00000799,0.00042702,-0.00009263,-0.00010381,-0.
 00003844,0.00004394,0.00009621,-0.00018547,-0.00011248,0.00011744,-0.0
 0044319,-0.00001494,0.00016223,0.00002415,0.00000699,0.00022610,-0.000
 00518,-0.00012261,0.00075909,0.00062059,0.00028670,-0.00013781,-0.0002
 0242,0.00005965,0.00049838,0.00023859,0.01528924,-0.02735075,-0.002397
 85,-0.01843266,0.02984276,0.04985332,0.00041772,-0.00268317,0.00206934
 ,-0.01577176,-0.00021508,-0.00702198,-0.00106007,0.00034880,-0.0003552
 7,0.00016295,-0.00016861,-0.00025960,0.00035424,0.00011038,0.00043192,
 0.00030555,0.00105756,-0.00000550,-0.26079068,-0.01618876,-0.10245488,
 0.00015212,0.00020351,0.00056710,0.00002408,-0.00010873,-0.00003800,0.
 00001710,0.00000414,0.00007170,-0.00014651,-0.00039914,0.00008776,0.00
 014502,-0.00017291,-0.00007680,-0.00007632,-0.00001549,0.00004385,-0.0
 0006268,-0.00006529,0.00011693,0.00008886,0.00004264,0.00018222,-0.000
 00935,-0.00013027,-0.00006345,-0.00001247,-0.00002042,-0.00005719,0.00
 027441,0.00002673,0.00024914,0.00063782,-0.00045056,-0.00012852,0.0000
 2995,0.00009229,0.00006126,0.00457423,0.00043538,0.00252591,-0.0125095
 4,-0.00177563,-0.00605549,0.28325532,-0.00069137,-0.00432391,0.0021360
 1,-0.02284202,-0.00258144,-0.01157832,-0.00149933,0.00045002,-0.000346
 23,0.00029300,-0.00041159,-0.00001273,0.00019417,-0.00025607,0.0006633
 3,-0.00132331,0.00115205,-0.00061235,-0.01524109,-0.04650084,-0.007886
 07,0.00049710,0.00099919,0.00005411,0.00003600,0.00000128,-0.00005633,
 0.00003314,0.00003363,0.00003858,-0.00031564,-0.00043318,0.00016288,-0
 .00010960,0.00041170,0.00004987,-0.00000814,0.00018378,-0.00001310,0.0
 0003363,0.00012065,-0.00004668,0.00006150,0.00014021,-0.00019487,0.000
 08794,0.00010923,-0.00001156,-0.00001474,0.00007814,-0.00004713,0.0002
 9629,0.00029110,0.00016016,0.00065006,-0.00092339,0.00016577,0.0000280
 3,-0.00001681,0.00010444,-0.00501487,-0.00169153,-0.00215142,0.0247766
 4,0.00271256,0.01309771,0.02007262,0.05045525,0.00097528,0.00275447,-0
 .00131333,0.01478638,0.00175480,0.00548113,0.00084887,-0.00010807,0.00
 037532,-0.00002870,0.00016762,0.00012919,-0.00063902,0.00048335,-0.000
 39067,0.00000760,-0.00054203,-0.00023864,-0.10295308,-0.00849674,-0.09
 328067,0.00025247,-0.00059991,0.00059933,-0.00002946,0.00001416,-0.000
 00709,-0.00002365,-0.00004989,0.00002043,0.00020523,0.00024400,-0.0000
 7400,-0.00004047,0.00001975,-0.00002934,0.00003733,0.00001671,-0.00003
 047,0.00001678,0.00002458,-0.00000194,0.00001570,-0.00067171,0.0001862
 8,0.00015083,0.00017959,0.00005379,-0.00015386,-0.00029949,0.00022900,
 0.00019226,-0.00015066,-0.00005144,-0.00010718,-0.00027379,0.00026111,
 -0.00012325,0.00005147,-0.00000108,-0.02859134,-0.00136006,-0.01226161
 ,0.00509173,0.00051793,0.00116395,0.11010957,0.00632393,0.09918076\\-0
 .00000301,0.00000186,0.00000889,-0.00000121,0.00000394,-0.00001687,-0.
 00000082,-0.00001601,-0.00000933,0.00000561,0.00000464,-0.00000714,0.0
 0000172,0.00000173,0.00000019,0.00001007,-0.00000332,0.00000843,0.0000
 0935,0.00000513,0.00000477,-0.00000129,-0.00000382,-0.00000164,-0.0000
 0683,-0.00000336,0.00000337,0.00000577,-0.00000008,0.00000216,0.000001
 08,-0.00000133,0.00000309,-0.00000586,0.00000367,0.00000395,-0.0000024
 5,0.00000156,0.00000341,0.00000393,-0.00000016,0.00000150,-0.00000781,
 -0.00000175,0.00000099,-0.00000506,0.00000159,0.00000105,0.00000019,-0
 .00000151,0.00000393,0.00000015,0.00000102,-0.00000050,-0.00000405,0.0
 0000444,-0.00000347,0.00000011,0.00000358,-0.00000115,0.00000062,-0.00
 000308,0.00000166,-0.00000091,-0.00000153,-0.00000309,0.00000071,0.000
 00279,-0.00000420\\\@


 IF I AM NOT FOR MYSELF, WHO WILL BE?
 BUT IF I AM ONLY FOR MYSELF, WHAT AM I?
 THOUGH A SEEKER SINCE MY BIRTH,
 HERE IS ALL I'VE LEARNED ON EARTH,
 THIS IS THE GIST OF WHAT I KNOW:
 GIVE ADVICE AND BUY A FOE.

 PRESSED FOR RULES AND VERITIES,
 ALL I RECOLLECT ARE THESE:
 FEED A COLD TO STARVE A FEVER,
 ARGUE WITH NO TRUE-BELIEVER.
 THINK-TOO-LONG IS NEVER-ACT,
 SCRATCH A MYTH AND FIND A FACT.

 STITCH IN TIME SAVES TWENTY STITCHES,
 GIVE THE RICH TO PLEASE THEM, RICHES.
 GIVE TO LOVE YOU HEARTH AND HALL,
 BUT DO NOT GIVE ADVICE AT ALL.

                                  -- HILLEL
 Job cpu time:       0 days  3 hours  0 minutes 56.0 seconds.
 Elapsed time:       0 days  0 hours 11 minutes 21.8 seconds.
 File lengths (MBytes):  RWF=    137 Int=      0 D2E=      0 Chk=      7 Scr=      1
 Normal termination of Gaussian 16 at Sat Sep 27 21:27:13 2025.
