 Entering Gaussian System, Link 0=g16
 Input=TQUE0165.gjf
 Output=TQUE0165.log
 Initial command:
 /usr/local/g16/l1.exe "/dados_01/scratch/Gau-2303708.inp" -scrdir="/dados_01/scratch/"
 Entering Link 1 = /usr/local/g16/l1.exe PID=   2303711.
  
 Copyright (c) 1988-2017, Gaussian, Inc.  All Rights Reserved.
  
 This is part of the Gaussian(R) 16 program.  It is based on
 the Gaussian(R) 09 system (copyright 2009, Gaussian, Inc.),
 the Gaussian(R) 03 system (copyright 2003, Gaussian, Inc.),
 the Gaussian(R) 98 system (copyright 1998, Gaussian, Inc.),
 the Gaussian(R) 94 system (copyright 1995, Gaussian, Inc.),
 the Gaussian 92(TM) system (copyright 1992, Gaussian, Inc.),
 the Gaussian 90(TM) system (copyright 1990, Gaussian, Inc.),
 the Gaussian 88(TM) system (copyright 1988, Gaussian, Inc.),
 the Gaussian 86(TM) system (copyright 1986, Carnegie Mellon
 University), and the Gaussian 82(TM) system (copyright 1983,
 Carnegie Mellon University). Gaussian is a federally registered
 trademark of Gaussian, Inc.
  
 This software contains proprietary and confidential information,
 including trade secrets, belonging to Gaussian, Inc.
  
 This software is provided under written license and may be
 used, copied, transmitted, or stored only in accord with that
 written license.
  
 The following legend is applicable only to US Government
 contracts under FAR:
  
                    RESTRICTED RIGHTS LEGEND
  
 Use, reproduction and disclosure by the US Government is
 subject to restrictions as set forth in subparagraphs (a)
 and (c) of the Commercial Computer Software - Restricted
 Rights clause in FAR 52.227-19.
  
 Gaussian, Inc.
 340 Quinnipiac St., Bldg. 40, Wallingford CT 06492
  
  
 ---------------------------------------------------------------
 Warning -- This program may not be used in any manner that
 competes with the business of Gaussian, Inc. or will provide
 assistance to any competitor of Gaussian, Inc.  The licensee
 of this program is prohibited from giving any competitor of
 Gaussian, Inc. access to this program.  By using this program,
 the user acknowledges that Gaussian, Inc. is engaged in the
 business of creating and licensing software in the field of
 computational chemistry and represents and warrants to the
 licensee that it is not a competitor of Gaussian, Inc. and that
 it will not use this program in any manner prohibited above.
 ---------------------------------------------------------------
  

 Cite this work as:
 Gaussian 16, Revision B.01,
 M. J. Frisch, G. W. Trucks, H. B. Schlegel, G. E. Scuseria, 
 M. A. Robb, J. R. Cheeseman, G. Scalmani, V. Barone, 
 G. A. Petersson, H. Nakatsuji, X. Li, M. Caricato, A. V. Marenich, 
 J. Bloino, B. G. Janesko, R. Gomperts, B. Mennucci, H. P. Hratchian, 
 J. V. Ortiz, A. F. Izmaylov, J. L. Sonnenberg, D. Williams-Young, 
 F. Ding, F. Lipparini, F. Egidi, J. Goings, B. Peng, A. Petrone, 
 T. Henderson, D. Ranasinghe, V. G. Zakrzewski, J. Gao, N. Rega, 
 G. Zheng, W. Liang, M. Hada, M. Ehara, K. Toyota, R. Fukuda, 
 J. Hasegawa, M. Ishida, T. Nakajima, Y. Honda, O. Kitao, H. Nakai, 
 T. Vreven, K. Throssell, J. A. Montgomery, Jr., J. E. Peralta, 
 F. Ogliaro, M. J. Bearpark, J. J. Heyd, E. N. Brothers, K. N. Kudin, 
 V. N. Staroverov, T. A. Keith, R. Kobayashi, J. Normand, 
 K. Raghavachari, A. P. Rendell, J. C. Burant, S. S. Iyengar, 
 J. Tomasi, M. Cossi, J. M. Millam, M. Klene, C. Adamo, R. Cammi, 
 J. W. Ochterski, R. L. Martin, K. Morokuma, O. Farkas, 
 J. B. Foresman, and D. J. Fox, Gaussian, Inc., Wallingford CT, 2016.
 
 ******************************************
 Gaussian 16:  ES64L-G16RevB.01 20-Dec-2017
                27-Sep-2025 
 ******************************************
 %nprocs=16
 Will use up to   16 processors via shared memory.
 %mem=40GB
 %chk=TQUE0165.chk
 ----------------------------------------------------------------------
 # opt freq=noraman M08HX/6-311++G** scf=xqc Empiricaldispersion=pfd In
 t(Grid=ultraFine)
 ----------------------------------------------------------------------
 1/18=20,19=15,26=4,38=1/1,3;
 2/9=110,12=2,17=6,18=5,40=1/2;
 3/5=4,6=6,7=1111,11=2,25=1,30=1,71=1,74=-74,75=-5,124=11/1,2,3;
 4//1;
 5/5=2,8=3,13=1,38=5/2,8;
 6/7=2,8=2,9=2,10=2,28=1/1;
 7//1,2,3,16;
 1/18=20,19=15,26=4/3(2);
 2/9=110/2;
 99//99;
 2/9=110/2;
 3/5=4,6=6,7=1111,11=2,25=1,30=1,71=1,74=-74,75=-5,124=11/1,2,3;
 4/5=5,16=3,69=1/1;
 5/5=2,8=3,13=1,38=5/2,8;
 7//1,2,3,16;
 1/18=20,19=15,26=4/3(-5);
 2/9=110/2;
 6/7=2,8=2,9=2,10=2,19=2,28=1/1;
 99/9=1/99;
 --------
 TQUE0165
 --------
 Symbolic Z-matrix:
 Charge =  0 Multiplicity = 1
 O                     2.301     1.0217    0.0004 
 O                    -2.7831   -0.5536    0.0001 
 C                     0.7781   -0.8044    0. 
 C                     1.1347    0.6406    0.0002 
 C                    -0.5075   -1.1777    0.0002 
 C                     1.907    -1.7877   -0.0005 
 C                    -1.6108   -0.1948    0.0002 
 C                     0.0284    1.6211   -0.0004 
 C                    -1.248     1.2347   -0.0003 
 H                    -0.7902   -2.2254    0.0001 
 H                     1.5489   -2.8228   -0.0007 
 H                     2.532    -1.6531    0.8884 
 H                     2.5317   -1.6525   -0.8895 
 H                     0.2904    2.6734   -0.0008 
 H                    -2.0523    1.9614   -0.0006 
 

 GradGradGradGradGradGradGradGradGradGradGradGradGradGradGradGradGradGrad
 Berny optimization.
 Initialization pass.
                           ----------------------------
                           !    Initial Parameters    !
                           ! (Angstroms and Degrees)  !
 --------------------------                            --------------------------
 ! Name  Definition              Value          Derivative Info.                !
 --------------------------------------------------------------------------------
 ! R1    R(1,4)                  1.227          estimate D2E/DX2                !
 ! R2    R(2,7)                  1.226          estimate D2E/DX2                !
 ! R3    R(3,4)                  1.4884         estimate D2E/DX2                !
 ! R4    R(3,5)                  1.3387         estimate D2E/DX2                !
 ! R5    R(3,6)                  1.4971         estimate D2E/DX2                !
 ! R6    R(4,8)                  1.4783         estimate D2E/DX2                !
 ! R7    R(5,7)                  1.4776         estimate D2E/DX2                !
 ! R8    R(5,10)                 1.0852         estimate D2E/DX2                !
 ! R9    R(6,11)                 1.0953         estimate D2E/DX2                !
 ! R10   R(6,12)                 1.0949         estimate D2E/DX2                !
 ! R11   R(6,13)                 1.0949         estimate D2E/DX2                !
 ! R12   R(7,9)                  1.4748         estimate D2E/DX2                !
 ! R13   R(8,9)                  1.3336         estimate D2E/DX2                !
 ! R14   R(8,14)                 1.0844         estimate D2E/DX2                !
 ! R15   R(9,15)                 1.084          estimate D2E/DX2                !
 ! A1    A(4,3,5)              120.0543         estimate D2E/DX2                !
 ! A2    A(4,3,6)              117.1941         estimate D2E/DX2                !
 ! A3    A(5,3,6)              122.7516         estimate D2E/DX2                !
 ! A4    A(1,4,3)              121.9579         estimate D2E/DX2                !
 ! A5    A(1,4,8)              120.3545         estimate D2E/DX2                !
 ! A6    A(3,4,8)              117.6876         estimate D2E/DX2                !
 ! A7    A(3,5,7)              122.1113         estimate D2E/DX2                !
 ! A8    A(3,5,10)             121.2922         estimate D2E/DX2                !
 ! A9    A(7,5,10)             116.5965         estimate D2E/DX2                !
 ! A10   A(3,6,11)             111.9733         estimate D2E/DX2                !
 ! A11   A(3,6,12)             110.4514         estimate D2E/DX2                !
 ! A12   A(3,6,13)             110.4502         estimate D2E/DX2                !
 ! A13   A(11,6,12)            107.6346         estimate D2E/DX2                !
 ! A14   A(11,6,13)            107.6428         estimate D2E/DX2                !
 ! A15   A(12,6,13)            108.56           estimate D2E/DX2                !
 ! A16   A(2,7,5)              121.2855         estimate D2E/DX2                !
 ! A17   A(2,7,9)              121.2582         estimate D2E/DX2                !
 ! A18   A(5,7,9)              117.4563         estimate D2E/DX2                !
 ! A19   A(4,8,9)              121.6074         estimate D2E/DX2                !
 ! A20   A(4,8,14)             117.569          estimate D2E/DX2                !
 ! A21   A(9,8,14)             120.8236         estimate D2E/DX2                !
 ! A22   A(7,9,8)              121.0832         estimate D2E/DX2                !
 ! A23   A(7,9,15)             117.8577         estimate D2E/DX2                !
 ! A24   A(8,9,15)             121.0591         estimate D2E/DX2                !
 ! D1    D(5,3,4,1)            179.9795         estimate D2E/DX2                !
 ! D2    D(5,3,4,8)             -0.0446         estimate D2E/DX2                !
 ! D3    D(6,3,4,1)             -0.0238         estimate D2E/DX2                !
 ! D4    D(6,3,4,8)            179.9521         estimate D2E/DX2                !
 ! D5    D(4,3,5,7)              0.0192         estimate D2E/DX2                !
 ! D6    D(4,3,5,10)          -179.9975         estimate D2E/DX2                !
 ! D7    D(6,3,5,7)           -179.9774         estimate D2E/DX2                !
 ! D8    D(6,3,5,10)             0.0059         estimate D2E/DX2                !
 ! D9    D(4,3,6,11)          -179.9953         estimate D2E/DX2                !
 ! D10   D(4,3,6,12)            60.0631         estimate D2E/DX2                !
 ! D11   D(4,3,6,13)           -60.0441         estimate D2E/DX2                !
 ! D12   D(5,3,6,11)             0.0014         estimate D2E/DX2                !
 ! D13   D(5,3,6,12)          -119.9402         estimate D2E/DX2                !
 ! D14   D(5,3,6,13)           119.9526         estimate D2E/DX2                !
 ! D15   D(1,4,8,9)           -179.9834         estimate D2E/DX2                !
 ! D16   D(1,4,8,14)             0.0089         estimate D2E/DX2                !
 ! D17   D(3,4,8,9)              0.0403         estimate D2E/DX2                !
 ! D18   D(3,4,8,14)          -179.9674         estimate D2E/DX2                !
 ! D19   D(3,5,7,2)            179.9844         estimate D2E/DX2                !
 ! D20   D(3,5,7,9)              0.0118         estimate D2E/DX2                !
 ! D21   D(10,5,7,2)             0.0004         estimate D2E/DX2                !
 ! D22   D(10,5,7,9)          -179.9722         estimate D2E/DX2                !
 ! D23   D(2,7,9,8)           -179.9894         estimate D2E/DX2                !
 ! D24   D(2,7,9,15)             0.0096         estimate D2E/DX2                !
 ! D25   D(5,7,9,8)             -0.0168         estimate D2E/DX2                !
 ! D26   D(5,7,9,15)           179.9822         estimate D2E/DX2                !
 ! D27   D(4,8,9,7)             -0.0099         estimate D2E/DX2                !
 ! D28   D(4,8,9,15)           179.9911         estimate D2E/DX2                !
 ! D29   D(14,8,9,7)           179.998          estimate D2E/DX2                !
 ! D30   D(14,8,9,15)           -0.0009         estimate D2E/DX2                !
 --------------------------------------------------------------------------------
 Trust Radius=3.00D-01 FncErr=1.00D-07 GrdErr=1.00D-06 EigMax=2.50D+02 EigMin=1.00D-04
 Number of steps in this run=     79 maximum allowed number of steps=    100.
 GradGradGradGradGradGradGradGradGradGradGradGradGradGradGradGradGradGrad

                          Input orientation:                          
 ---------------------------------------------------------------------
 Center     Atomic      Atomic             Coordinates (Angstroms)
 Number     Number       Type             X           Y           Z
 ---------------------------------------------------------------------
      1          8           0        2.301000    1.021700    0.000400
      2          8           0       -2.783100   -0.553600    0.000100
      3          6           0        0.778100   -0.804400    0.000000
      4          6           0        1.134700    0.640600    0.000200
      5          6           0       -0.507500   -1.177700    0.000200
      6          6           0        1.907000   -1.787700   -0.000500
      7          6           0       -1.610800   -0.194800    0.000200
      8          6           0        0.028400    1.621100   -0.000400
      9          6           0       -1.248000    1.234700   -0.000300
     10          1           0       -0.790200   -2.225400    0.000100
     11          1           0        1.548900   -2.822800   -0.000700
     12          1           0        2.532000   -1.653100    0.888400
     13          1           0        2.531700   -1.652500   -0.889500
     14          1           0        0.290400    2.673400   -0.000800
     15          1           0       -2.052300    1.961400   -0.000600
 ---------------------------------------------------------------------
                    Distance matrix (angstroms):
                    1          2          3          4          5
     1  O    0.000000
     2  O    5.322560   0.000000
     3  C    2.377786   3.570020   0.000000
     4  C    1.226985   4.095763   1.488351   0.000000
     5  C    3.567216   2.359631   1.338701   2.450109   0.000000
     6  C    2.836894   4.849747   1.497095   2.548154   2.490364
     7  C    4.096590   1.225979   2.465452   2.869785   1.477621
     8  C    2.350317   3.554413   2.538720   1.478269   2.849644
     9  C    3.555386   2.356809   2.874545   2.455649   2.523492
    10  H    4.483210   2.601262   2.116319   3.452419   1.085170
    11  H    3.917376   4.890347   2.160572   3.488080   2.633465
    12  H    2.827801   5.499842   2.141427   2.828852   3.202103
    13  H    2.827807   5.499643   2.141401   2.828689   3.202146
    14  H    2.602043   4.456448   3.511829   2.201163   3.932889
    15  H    4.453567   2.619025   3.957375   3.449853   3.498622
                    6          7          8          9         10
     6  C    0.000000
     7  C    3.861638   0.000000
     8  C    3.892179   2.446318   0.000000
     9  C    4.369088   1.474820   1.333605   0.000000
    10  H    2.732484   2.190142   3.932641   3.490254   0.000000
    11  H    1.095293   4.109755   4.696825   4.928078   2.414182
    12  H    1.094936   4.480885   4.216440   4.839171   3.486204
    13  H    1.094920   4.480710   4.215859   4.838671   3.486348
    14  H    4.744977   3.441095   1.084426   2.106308   5.016566
    15  H    5.452688   2.200936   2.108345   1.083970   4.372893
                   11         12         13         14         15
    11  H    0.000000
    12  H    1.767819   0.000000
    13  H    1.767898   1.777900   0.000000
    14  H    5.638443   4.953186   4.952436   0.000000
    15  H    5.988089   5.905145   5.904530   2.448507   0.000000
 Stoichiometry    C7H6O2
 Framework group  C1[X(C7H6O2)]
 Deg. of freedom    39
 Full point group                 C1      NOp   1
 Largest Abelian subgroup         C1      NOp   1
 Largest concise Abelian subgroup C1      NOp   1
                         Standard orientation:                         
 ---------------------------------------------------------------------
 Center     Atomic      Atomic             Coordinates (Angstroms)
 Number     Number       Type             X           Y           Z
 ---------------------------------------------------------------------
      1          8           0       -2.167949    1.228417   -0.000442
      2          8           0        2.786131   -0.717534   -0.000142
      3          6           0       -0.783867   -0.705021   -0.000042
      4          6           0       -1.032931    0.762343   -0.000242
      5          6           0        0.470702   -1.172114   -0.000242
      6          6           0       -1.982210   -1.602389    0.000458
      7          6           0        1.643484   -0.273257   -0.000242
      8          6           0        0.142667    1.658586    0.000358
      9          6           0        1.387095    1.179106    0.000258
     10          1           0        0.675366   -2.237810   -0.000142
     11          1           0       -1.701421   -2.661080    0.000658
     12          1           0       -2.595581   -1.422063   -0.888442
     13          1           0       -2.595238   -1.421487    0.889458
     14          1           0       -0.041015    2.727342    0.000758
     15          1           0        2.242797    1.844512    0.000558
 ---------------------------------------------------------------------
 Rotational constants (GHZ):           2.9601033           1.4450933           0.9770211
 Standard basis: 6-311++G(d,p) (5D, 7F)
 There are   249 symmetry adapted cartesian basis functions of A   symmetry.
 There are   240 symmetry adapted basis functions of A   symmetry.
   240 basis functions,   378 primitive gaussians,   249 cartesian basis functions
    32 alpha electrons       32 beta electrons
       nuclear repulsion energy       404.4193645744 Hartrees.
 NAtoms=   15 NActive=   15 NUniq=   15 SFac= 1.00D+00 NAtFMM=   60 NAOKFM=F Big=F
 Integral buffers will be    131072 words long.
 Raffenetti 2 integral format.
 Two-electron integral symmetry is turned on.
 R6APFD:  NTU= -4 IXU= 1 FactS= 1.050
 Nuclear repulsion after empirical dispersion term =      404.4115974489 Hartrees.
 One-electron integrals computed using PRISM.
 NBasis=   240 RedAO= T EigKep=  2.22D-06  NBF=   240
 NBsUse=   240 1.00D-06 EigRej= -1.00D+00 NBFU=   240
 ExpMin= 3.60D-02 ExpMax= 8.59D+03 ExpMxC= 1.30D+03 IAcc=3 IRadAn=         5 AccDes= 0.00D+00
 Harris functional with IExCor= 1009 and IRadAn=       5 diagonalized for initial guess.
 HarFok:  IExCor= 1009 AccDes= 0.00D+00 IRadAn=         5 IDoV= 1 UseB2=F ITyADJ=14
 ICtDFT=  3500011 ScaDFX=  1.000000  1.000000  1.000000  1.000000
 FoFCou: FMM=F IPFlag=           0 FMFlag=      100000 FMFlg1=           0
         NFxFlg=           0 DoJE=T BraDBF=F KetDBF=T FulRan=T
         wScrn=  0.000000 ICntrl=       500 IOpCl=  0 I1Cent=   200000004 NGrid=           0
         NMat0=    1 NMatS0=      1 NMatT0=    0 NMatD0=    1 NMtDS0=    0 NMtDT0=    0
 Petite list used in FoFCou.
 Requested convergence on RMS density matrix=1.00D-08 within  32 cycles.
 Requested convergence on MAX density matrix=1.00D-06.
 Requested convergence on             energy=1.00D-06.
 No special actions if energy rises.
 SCF Done:  E(RM08HX) =  -420.752480671     A.U. after   15 cycles
            NFock= 15  Conv=0.66D-08     -V/T= 2.0043
 QCSCF skips out because SCF is already converged.

 **********************************************************************

            Population analysis using the SCF Density.

 **********************************************************************

 Orbital symmetries:
       Occupied  (A) (A) (A) (A) (A) (A) (A) (A) (A) (A) (A) (A)
                 (A) (A) (A) (A) (A) (A) (A) (A) (A) (A) (A) (A)
                 (A) (A) (A) (A) (A) (A) (A) (A)
       Virtual   (A) (A) (A) (A) (A) (A) (A) (A) (A) (A) (A) (A)
                 (A) (A) (A) (A) (A) (A) (A) (A) (A) (A) (A) (A)
                 (A) (A) (A) (A) (A) (A) (A) (A) (A) (A) (A) (A)
                 (A) (A) (A) (A) (A) (A) (A) (A) (A) (A) (A) (A)
                 (A) (A) (A) (A) (A) (A) (A) (A) (A) (A) (A) (A)
                 (A) (A) (A) (A) (A) (A) (A) (A) (A) (A) (A) (A)
                 (A) (A) (A) (A) (A) (A) (A) (A) (A) (A) (A) (A)
                 (A) (A) (A) (A) (A) (A) (A) (A) (A) (A) (A) (A)
                 (A) (A) (A) (A) (A) (A) (A) (A) (A) (A) (A) (A)
                 (A) (A) (A) (A) (A) (A) (A) (A) (A) (A) (A) (A)
                 (A) (A) (A) (A) (A) (A) (A) (A) (A) (A) (A) (A)
                 (A) (A) (A) (A) (A) (A) (A) (A) (A) (A) (A) (A)
                 (A) (A) (A) (A) (A) (A) (A) (A) (A) (A) (A) (A)
                 (A) (A) (A) (A) (A) (A) (A) (A) (A) (A) (A) (A)
                 (A) (A) (A) (A) (A) (A) (A) (A) (A) (A) (A) (A)
                 (A) (A) (A) (A) (A) (A) (A) (A) (A) (A) (A) (A)
                 (A) (A) (A) (A) (A) (A) (A) (A) (A) (A) (A) (A)
                 (A) (A) (A) (A)
 The electronic state is 1-A.
 Alpha  occ. eigenvalues --  -19.63525 -19.62964 -10.65323 -10.64910 -10.58820
 Alpha  occ. eigenvalues --  -10.57857 -10.57737 -10.57148 -10.54606  -1.19501
 Alpha  occ. eigenvalues --   -1.18945  -0.98642  -0.92364  -0.83652  -0.79765
 Alpha  occ. eigenvalues --   -0.72719  -0.68813  -0.61260  -0.59464  -0.56646
 Alpha  occ. eigenvalues --   -0.54041  -0.53207  -0.51999  -0.50511  -0.50005
 Alpha  occ. eigenvalues --   -0.48355  -0.47911  -0.46510  -0.37323  -0.36895
 Alpha  occ. eigenvalues --   -0.35861  -0.35263
 Alpha virt. eigenvalues --   -0.10911  -0.02926  -0.01892  -0.01076  -0.00606
 Alpha virt. eigenvalues --    0.00938   0.01020   0.01076   0.02605   0.03578
 Alpha virt. eigenvalues --    0.04079   0.04538   0.04680   0.05054   0.06998
 Alpha virt. eigenvalues --    0.07966   0.08327   0.09524   0.09662   0.10565
 Alpha virt. eigenvalues --    0.10995   0.11079   0.12012   0.12286   0.12996
 Alpha virt. eigenvalues --    0.13087   0.13635   0.13821   0.14884   0.15517
 Alpha virt. eigenvalues --    0.16478   0.16928   0.17334   0.18385   0.19791
 Alpha virt. eigenvalues --    0.20824   0.21104   0.22037   0.22801   0.23046
 Alpha virt. eigenvalues --    0.23737   0.25093   0.26993   0.27105   0.27945
 Alpha virt. eigenvalues --    0.30442   0.30734   0.31151   0.31550   0.32685
 Alpha virt. eigenvalues --    0.33542   0.35088   0.36168   0.37050   0.39930
 Alpha virt. eigenvalues --    0.40906   0.41190   0.44113   0.45337   0.45401
 Alpha virt. eigenvalues --    0.52106   0.52598   0.53068   0.54350   0.56514
 Alpha virt. eigenvalues --    0.57652   0.58644   0.58900   0.60002   0.62197
 Alpha virt. eigenvalues --    0.63420   0.63918   0.65771   0.66082   0.67208
 Alpha virt. eigenvalues --    0.69863   0.70804   0.71626   0.75596   0.78073
 Alpha virt. eigenvalues --    0.79591   0.79927   0.81632   0.84682   0.87422
 Alpha virt. eigenvalues --    0.88662   0.90035   0.91897   0.93315   0.94237
 Alpha virt. eigenvalues --    0.96554   0.99151   1.00130   1.00340   1.00687
 Alpha virt. eigenvalues --    1.05428   1.06204   1.12047   1.15041   1.16182
 Alpha virt. eigenvalues --    1.20398   1.22144   1.26179   1.26818   1.27433
 Alpha virt. eigenvalues --    1.28081   1.31444   1.39191   1.41203   1.45002
 Alpha virt. eigenvalues --    1.46277   1.47672   1.50227   1.53528   1.55895
 Alpha virt. eigenvalues --    1.57427   1.59487   1.60644   1.62907   1.64654
 Alpha virt. eigenvalues --    1.65449   1.68444   1.71001   1.73298   1.78077
 Alpha virt. eigenvalues --    1.79211   1.79902   1.81488   1.82128   1.88180
 Alpha virt. eigenvalues --    1.88462   1.94065   1.94242   1.95289   1.98036
 Alpha virt. eigenvalues --    2.03598   2.03728   2.11607   2.12835   2.14520
 Alpha virt. eigenvalues --    2.14836   2.23122   2.23270   2.27427   2.31971
 Alpha virt. eigenvalues --    2.37989   2.39841   2.47814   2.49466   2.52014
 Alpha virt. eigenvalues --    2.56675   2.58406   2.61935   2.63216   2.66676
 Alpha virt. eigenvalues --    2.68070   2.68166   2.69079   2.70155   2.76881
 Alpha virt. eigenvalues --    2.79831   2.81444   2.88880   2.89564   2.91272
 Alpha virt. eigenvalues --    2.92396   2.96989   2.99246   3.01383   3.02661
 Alpha virt. eigenvalues --    3.10382   3.10675   3.19949   3.26058   3.27720
 Alpha virt. eigenvalues --    3.31256   3.39089   3.41484   3.47954   3.51530
 Alpha virt. eigenvalues --    3.59046   3.64987   3.65884   3.73868   3.79240
 Alpha virt. eigenvalues --    3.82085   3.85058   4.05193   4.14630   4.16777
 Alpha virt. eigenvalues --    4.25936   4.37438   4.77821   5.12753   5.14529
 Alpha virt. eigenvalues --    5.32330   5.35638   5.79308   5.86960  23.68711
 Alpha virt. eigenvalues --   23.80696  23.89186  23.94649  24.01388  24.23859
 Alpha virt. eigenvalues --   24.29322  49.98943  50.03012
          Condensed to atoms (all electrons):
               1          2          3          4          5          6
     1  O    8.010878   0.000632  -0.006045   0.405760  -0.184926   0.070227
     2  O    0.000632   8.041733  -0.065108  -0.025997  -0.057251   0.015948
     3  C   -0.006045  -0.065108  16.164704  -2.453042  -8.917097  -1.543936
     4  C    0.405760  -0.025997  -2.453042  13.556450   1.506282  -1.368517
     5  C   -0.184926  -0.057251  -8.917097   1.506282  19.622358  -0.837597
     6  C    0.070227   0.015948  -1.543936  -1.368517  -0.837597   9.352187
     7  C    0.028277   0.407171   2.396367  -2.183408  -3.388574   0.268971
     8  C   -0.076032  -0.032873  -0.539054  -5.217027  -0.432233  -0.864622
     9  C   -0.068136  -0.076990  -0.799664   3.195357  -0.771756   0.508853
    10  H   -0.001536  -0.019592  -0.167503   0.066738   0.720281  -0.109710
    11  H    0.000952   0.000211  -0.154538  -0.060154   0.015203   0.466917
    12  H   -0.007903   0.000163   0.061635  -0.009323  -0.059055   0.371290
    13  H   -0.007858   0.000164   0.060919  -0.008805  -0.058684   0.371327
    14  H   -0.017944   0.001985  -0.096743  -0.197663   0.073470  -0.042117
    15  H    0.001587  -0.013049   0.056602   0.111908  -0.100949   0.006981
               7          8          9         10         11         12
     1  O    0.028277  -0.076032  -0.068136  -0.001536   0.000952  -0.007903
     2  O    0.407171  -0.032873  -0.076990  -0.019592   0.000211   0.000163
     3  C    2.396367  -0.539054  -0.799664  -0.167503  -0.154538   0.061635
     4  C   -2.183408  -5.217027   3.195357   0.066738  -0.060154  -0.009323
     5  C   -3.388574  -0.432233  -0.771756   0.720281   0.015203  -0.059055
     6  C    0.268971  -0.864622   0.508853  -0.109710   0.466917   0.371290
     7  C    9.909775   2.945407  -3.351603  -0.140618   0.068636  -0.002860
     8  C    2.945407  14.799166  -5.383982   0.068829  -0.006834  -0.016329
     9  C   -3.351603  -5.383982  12.188779  -0.118424   0.012637   0.003240
    10  H   -0.140618   0.068829  -0.118424   0.406999  -0.010021  -0.000782
    11  H    0.068636  -0.006834   0.012637  -0.010021   0.483277  -0.023665
    12  H   -0.002860  -0.016329   0.003240  -0.000782  -0.023665   0.499571
    13  H   -0.002971  -0.016621   0.003338  -0.000764  -0.023625  -0.061356
    14  H    0.088096   0.622919  -0.159211   0.003654  -0.000706  -0.000582
    15  H   -0.173651  -0.195932   0.585612  -0.004550   0.000587   0.000107
              13         14         15
     1  O   -0.007858  -0.017944   0.001587
     2  O    0.000164   0.001985  -0.013049
     3  C    0.060919  -0.096743   0.056602
     4  C   -0.008805  -0.197663   0.111908
     5  C   -0.058684   0.073470  -0.100949
     6  C    0.371327  -0.042117   0.006981
     7  C   -0.002971   0.088096  -0.173651
     8  C   -0.016621   0.622919  -0.195932
     9  C    0.003338  -0.159211   0.585612
    10  H   -0.000764   0.003654  -0.004550
    11  H   -0.023625  -0.000706   0.000587
    12  H   -0.061356  -0.000582   0.000107
    13  H    0.499558  -0.000586   0.000108
    14  H   -0.000586   0.389118  -0.015005
    15  H    0.000108  -0.015005   0.392133
 Mulliken charges:
               1
     1  O   -0.147934
     2  O   -0.177146
     3  C    2.002504
     4  C   -1.318558
     5  C   -1.129473
     6  C   -0.666203
     7  C   -0.869015
     8  C    0.345219
     9  C    0.231952
    10  H    0.306998
    11  H    0.231123
    12  H    0.245848
    13  H    0.245856
    14  H    0.351316
    15  H    0.347513
 Sum of Mulliken charges =  -0.00000
 Mulliken charges with hydrogens summed into heavy atoms:
               1
     1  O   -0.147934
     2  O   -0.177146
     3  C    2.002504
     4  C   -1.318558
     5  C   -0.822475
     6  C    0.056625
     7  C   -0.869015
     8  C    0.696535
     9  C    0.579465
 Electronic spatial extent (au):  <R**2>=           1139.8839
 Charge=             -0.0000 electrons
 Dipole moment (field-independent basis, Debye):
    X=             -0.7584    Y=             -0.2546    Z=              0.0012  Tot=              0.8000
 Quadrupole moment (field-independent basis, Debye-Ang):
   XX=            -66.1447   YY=            -47.6030   ZZ=            -52.5484
   XY=             10.0778   XZ=             -0.0016   YZ=              0.0020
 Traceless Quadrupole moment (field-independent basis, Debye-Ang):
   XX=            -10.7127   YY=              7.8290   ZZ=              2.8837
   XY=             10.0778   XZ=             -0.0016   YZ=              0.0020
 Octapole moment (field-independent basis, Debye-Ang**2):
  XXX=            -18.8341  YYY=              2.2526  ZZZ=             -0.0020  XYY=              5.2334
  XXY=              0.2150  XXZ=              0.0079  XZZ=             -1.9525  YZZ=             -0.3447
  YYZ=              0.0068  XYZ=             -0.0015
 Hexadecapole moment (field-independent basis, Debye-Ang**3):
 XXXX=          -1040.7001 YYYY=           -475.9257 ZZZZ=            -62.2669 XXXY=             63.3955
 XXXZ=              0.0042 YYYX=              7.7203 YYYZ=              0.0162 ZZZX=              0.0037
 ZZZY=             -0.0027 XXYY=           -248.0859 XXZZ=           -153.4352 YYZZ=           -103.7392
 XXYZ=              0.0085 YYXZ=              0.0041 ZZXY=             -5.1688
 N-N= 4.044115974489D+02 E-N=-1.790210983057D+03  KE= 4.189702426730D+02
 R6APFD:  NTU= -4 IXU= 1 FactS= 1.050
 Calling FoFJK, ICntrl=      2127 FMM=F ISym2X=0 I1Cent= 0 IOpClX= 0 NMat=1 NMatS=1 NMatT=0.
 ***** Axes restored to original set *****
 -------------------------------------------------------------------
 Center     Atomic                   Forces (Hartrees/Bohr)
 Number     Number              X              Y              Z
 -------------------------------------------------------------------
      1        8          -0.023964498   -0.011914936    0.000009383
      2        8           0.022243482    0.007216995    0.000016838
      3        6           0.002980789   -0.009603147    0.000006943
      4        6           0.025841765    0.012959377   -0.000042712
      5        6           0.000734184    0.002690638    0.000007655
      6        6          -0.000329896   -0.002466610    0.000023850
      7        6          -0.025767708   -0.012123973   -0.000036923
      8        6          -0.004895458    0.001928322    0.000015500
      9        6           0.002750146    0.005705026    0.000015743
     10        1          -0.001943206   -0.002483043   -0.000000254
     11        1          -0.002908430    0.001417180   -0.000006078
     12        1           0.002837767    0.002351563   -0.001087209
     13        1           0.002839886    0.002343937    0.001079115
     14        1           0.004230315    0.002069647    0.000001533
     15        1          -0.004649137   -0.000090975   -0.000003383
 -------------------------------------------------------------------
 Cartesian Forces:  Max     0.025841765 RMS     0.008414806

 GradGradGradGradGradGradGradGradGradGradGradGradGradGradGradGradGradGrad
 Berny optimization.
 FormGI is forming the generalized inverse of G from B-inverse, IUseBI=4.
 Internal  Forces:  Max     0.026479607 RMS     0.004823514
 Search for a local minimum.
 Step number   1 out of a maximum of   79
 All quantities printed in internal units (Hartrees-Bohrs-Radians)
 Mixed Optimization -- RFO/linear search
 Second derivative matrix not updated -- first step.
 ITU=  0
     Eigenvalues ---    0.00804   0.00985   0.01032   0.01080   0.01418
     Eigenvalues ---    0.01703   0.01878   0.02029   0.02263   0.02325
     Eigenvalues ---    0.07198   0.07334   0.16000   0.16000   0.16000
     Eigenvalues ---    0.16000   0.16000   0.16000   0.22343   0.23444
     Eigenvalues ---    0.24598   0.25000   0.25000   0.25000   0.32637
     Eigenvalues ---    0.32684   0.33630   0.34208   0.34248   0.34250
     Eigenvalues ---    0.34770   0.34808   0.35377   0.35465   0.35519
     Eigenvalues ---    0.54280   0.58159   0.92354   0.92782
 RFO step:  Lambda=-2.88759897D-03 EMin= 8.04371082D-03
 Linear search not attempted -- first point.
 Iteration  1 RMS(Cart)=  0.01982522 RMS(Int)=  0.00019735
 Iteration  2 RMS(Cart)=  0.00025507 RMS(Int)=  0.00001458
 Iteration  3 RMS(Cart)=  0.00000004 RMS(Int)=  0.00001458
 Variable       Old X    -DE/DX   Delta X   Delta X   Delta X     New X
                                 (Linear)    (Quad)   (Total)
    R1        2.31867  -0.02648   0.00000  -0.02858  -0.02858   2.29008
    R2        2.31676  -0.02338   0.00000  -0.02512  -0.02512   2.29164
    R3        2.81258   0.00331   0.00000   0.00951   0.00951   2.82209
    R4        2.52978   0.00283   0.00000   0.00468   0.00467   2.53445
    R5        2.82910  -0.00056   0.00000  -0.00169  -0.00169   2.82742
    R6        2.79352   0.00468   0.00000   0.01346   0.01346   2.80699
    R7        2.79230   0.00300   0.00000   0.00842   0.00842   2.80071
    R8        2.05067   0.00290   0.00000   0.00814   0.00814   2.05881
    R9        2.06980  -0.00039   0.00000  -0.00112  -0.00112   2.06868
   R10        2.06913   0.00103   0.00000   0.00297   0.00297   2.07210
   R11        2.06910   0.00103   0.00000   0.00299   0.00299   2.07209
   R12        2.78701   0.00687   0.00000   0.01962   0.01962   2.80662
   R13        2.52015   0.00329   0.00000   0.00578   0.00579   2.52594
   R14        2.04927   0.00303   0.00000   0.00848   0.00848   2.05774
   R15        2.04841   0.00339   0.00000   0.00946   0.00946   2.05787
    A1        2.09534  -0.00214   0.00000  -0.00913  -0.00914   2.08621
    A2        2.04542  -0.00380   0.00000  -0.01468  -0.01468   2.03074
    A3        2.14242   0.00593   0.00000   0.02381   0.02381   2.16623
    A4        2.12857  -0.00613   0.00000  -0.02421  -0.02421   2.10436
    A5        2.10058   0.00288   0.00000   0.01140   0.01140   2.11198
    A6        2.05404   0.00324   0.00000   0.01281   0.01281   2.06685
    A7        2.13124   0.00051   0.00000   0.00176   0.00175   2.13300
    A8        2.11695   0.00101   0.00000   0.00687   0.00687   2.12382
    A9        2.03499  -0.00152   0.00000  -0.00863  -0.00862   2.02637
   A10        1.95430  -0.00377   0.00000  -0.01689  -0.01686   1.93745
   A11        1.92774   0.00056   0.00000   0.00038   0.00036   1.92810
   A12        1.92772   0.00057   0.00000   0.00037   0.00035   1.92807
   A13        1.87858   0.00276   0.00000   0.02292   0.02294   1.90152
   A14        1.87872   0.00275   0.00000   0.02281   0.02284   1.90156
   A15        1.89473  -0.00278   0.00000  -0.02924  -0.02930   1.86543
   A16        2.11683  -0.00023   0.00000  -0.00112  -0.00112   2.11571
   A17        2.11636  -0.00114   0.00000  -0.00472  -0.00472   2.11163
   A18        2.05000   0.00138   0.00000   0.00585   0.00584   2.05584
   A19        2.12245  -0.00154   0.00000  -0.00595  -0.00593   2.11651
   A20        2.05197  -0.00293   0.00000  -0.01972  -0.01972   2.03225
   A21        2.10877   0.00447   0.00000   0.02566   0.02566   2.13443
   A22        2.11330  -0.00146   0.00000  -0.00534  -0.00533   2.10797
   A23        2.05700  -0.00253   0.00000  -0.01734  -0.01734   2.03966
   A24        2.11288   0.00399   0.00000   0.02268   0.02268   2.13556
    D1        3.14123  -0.00001   0.00000  -0.00052  -0.00051   3.14073
    D2       -0.00078   0.00001   0.00000   0.00086   0.00086   0.00008
    D3       -0.00041  -0.00001   0.00000  -0.00041  -0.00040  -0.00081
    D4        3.14076   0.00001   0.00000   0.00097   0.00097  -3.14146
    D5        0.00034  -0.00000   0.00000  -0.00015  -0.00015   0.00019
    D6       -3.14155  -0.00000   0.00000  -0.00001  -0.00000  -3.14155
    D7       -3.14120  -0.00001   0.00000  -0.00027  -0.00026  -3.14146
    D8        0.00010  -0.00000   0.00000  -0.00012  -0.00012  -0.00002
    D9       -3.14151   0.00000   0.00000  -0.00004  -0.00004  -3.14155
   D10        1.04830  -0.00138   0.00000  -0.01811  -0.01807   1.03023
   D11       -1.04797   0.00137   0.00000   0.01790   0.01786  -1.03011
   D12        0.00002   0.00000   0.00000   0.00007   0.00007   0.00010
   D13       -2.09335  -0.00137   0.00000  -0.01800  -0.01796  -2.11131
   D14        2.09357   0.00137   0.00000   0.01801   0.01797   2.11154
   D15       -3.14130   0.00001   0.00000   0.00054   0.00056  -3.14075
   D16        0.00016   0.00001   0.00000   0.00060   0.00061   0.00076
   D17        0.00070  -0.00001   0.00000  -0.00081  -0.00081  -0.00011
   D18       -3.14102  -0.00001   0.00000  -0.00075  -0.00076   3.14140
   D19        3.14132   0.00001   0.00000   0.00060   0.00059  -3.14127
   D20        0.00021  -0.00001   0.00000  -0.00063  -0.00063  -0.00042
   D21        0.00001   0.00001   0.00000   0.00045   0.00046   0.00046
   D22       -3.14111  -0.00001   0.00000  -0.00077  -0.00077   3.14131
   D23       -3.14141  -0.00001   0.00000  -0.00054  -0.00054   3.14124
   D24        0.00017  -0.00001   0.00000  -0.00061  -0.00061  -0.00044
   D25       -0.00029   0.00001   0.00000   0.00069   0.00068   0.00039
   D26        3.14128   0.00001   0.00000   0.00061   0.00061  -3.14129
   D27       -0.00017   0.00000   0.00000   0.00004   0.00004  -0.00013
   D28        3.14144   0.00000   0.00000   0.00011   0.00011   3.14155
   D29        3.14156   0.00000   0.00000  -0.00002  -0.00001   3.14154
   D30       -0.00002   0.00000   0.00000   0.00006   0.00006   0.00005
         Item               Value     Threshold  Converged?
 Maximum Force            0.026480     0.000450     NO 
 RMS     Force            0.004824     0.000300     NO 
 Maximum Displacement     0.079035     0.001800     NO 
 RMS     Displacement     0.019812     0.001200     NO 
 Predicted change in Energy=-1.457560D-03
 GradGradGradGradGradGradGradGradGradGradGradGradGradGradGradGradGradGrad

                          Input orientation:                          
 ---------------------------------------------------------------------
 Center     Atomic      Atomic             Coordinates (Angstroms)
 Number     Number       Type             X           Y           Z
 ---------------------------------------------------------------------
      1          8           0        2.288462    0.979876    0.000174
      2          8           0       -2.779747   -0.543393    0.000217
      3          6           0        0.773202   -0.821149   -0.000349
      4          6           0        1.128394    0.629380   -0.000537
      5          6           0       -0.517481   -1.185684   -0.000136
      6          6           0        1.917472   -1.785136   -0.000343
      7          6           0       -1.618587   -0.193661   -0.000316
      8          6           0        0.027676    1.626785   -0.000376
      9          6           0       -1.253606    1.245995   -0.000192
     10          1           0       -0.816215   -2.233405    0.000041
     11          1           0        1.559178   -2.819541   -0.000244
     12          1           0        2.551449   -1.627825    0.880370
     13          1           0        2.551344   -1.627914   -0.881141
     14          1           0        0.323103    2.674855   -0.000335
     15          1           0       -2.074345    1.961718   -0.000034
 ---------------------------------------------------------------------
                    Distance matrix (angstroms):
                    1          2          3          4          5
     1  O    0.000000
     2  O    5.292172   0.000000
     3  C    2.353657   3.563790   0.000000
     4  C    1.211860   4.080314   1.493384   0.000000
     5  C    3.544428   2.351677   1.341175   2.450176   0.000000
     6  C    2.789790   4.858579   1.496204   2.540184   2.507656
     7  C    4.079488   1.212685   2.472731   2.867630   1.482074
     8  C    2.351519   3.548421   2.558943   1.485395   2.864817
     9  C    3.552050   2.351810   2.895002   2.460516   2.540657
    10  H    4.468131   2.590676   2.126197   3.460787   1.089478
    11  H    3.868776   4.899706   2.147401   3.475720   2.642348
    12  H    2.764782   5.511108   2.142091   2.809993   3.223215
    13  H    2.765211   5.511216   2.142067   2.809915   3.223263
    14  H    2.595301   4.470436   3.524859   2.198287   3.950993
    15  H    4.471923   2.602532   3.981567   3.468813   3.511405
                    6          7          8          9         10
     6  C    0.000000
     7  C    3.877693   0.000000
     8  C    3.900325   2.454426   0.000000
     9  C    4.386740   1.485200   1.336669   0.000000
    10  H    2.770196   2.191884   3.951357   3.506784   0.000000
    11  H    1.094700   4.122309   4.702692   4.943717   2.446640
    12  H    1.096508   4.496848   4.211607   4.848987   3.533110
    13  H    1.096503   4.496805   4.211616   4.849027   3.533207
    14  H    4.736406   3.463892   1.088912   2.127828   5.038756
    15  H    5.474808   2.203038   2.128538   1.088978   4.379721
                   11         12         13         14         15
    11  H    0.000000
    12  H    1.783331   0.000000
    13  H    1.783353   1.761511   0.000000
    14  H    5.631720   4.924859   4.924906   0.000000
    15  H    6.005242   5.920972   5.921048   2.501264   0.000000
 Stoichiometry    C7H6O2
 Framework group  C1[X(C7H6O2)]
 Deg. of freedom    39
 Full point group                 C1      NOp   1
 Largest Abelian subgroup         C1      NOp   1
 Largest concise Abelian subgroup C1      NOp   1
                         Standard orientation:                         
 ---------------------------------------------------------------------
 Center     Atomic      Atomic             Coordinates (Angstroms)
 Number     Number       Type             X           Y           Z
 ---------------------------------------------------------------------
      1          8           0       -2.144925    1.219578   -0.000357
      2          8           0        2.771256   -0.739566   -0.000400
      3          6           0       -0.792381   -0.706643    0.000166
      4          6           0       -1.019815    0.769320    0.000354
      5          6           0        0.461625   -1.182268   -0.000047
      6          6           0       -2.016304   -1.567246    0.000160
      7          6           0        1.644992   -0.289976    0.000133
      8          6           0        0.163635    1.667008    0.000193
      9          6           0        1.406858    1.176009    0.000009
     10          1           0        0.667918   -2.252037   -0.000224
     11          1           0       -1.749517   -2.628939    0.000061
     12          1           0       -2.634161   -1.355285   -0.880553
     13          1           0       -2.634063   -1.355383    0.880958
     14          1           0       -0.039333    2.736837    0.000152
     15          1           0        2.286847    1.817487   -0.000149
 ---------------------------------------------------------------------
 Rotational constants (GHZ):           2.9755470           1.4452411           0.9786547
 Standard basis: 6-311++G(d,p) (5D, 7F)
 There are   249 symmetry adapted cartesian basis functions of A   symmetry.
 There are   240 symmetry adapted basis functions of A   symmetry.
   240 basis functions,   378 primitive gaussians,   249 cartesian basis functions
    32 alpha electrons       32 beta electrons
       nuclear repulsion energy       404.7018669143 Hartrees.
 NAtoms=   15 NActive=   15 NUniq=   15 SFac= 1.00D+00 NAtFMM=   60 NAOKFM=F Big=F
 Integral buffers will be    131072 words long.
 Raffenetti 2 integral format.
 Two-electron integral symmetry is turned on.
 R6APFD:  NTU= -4 IXU= 1 FactS= 1.050
 Nuclear repulsion after empirical dispersion term =      404.6940151758 Hartrees.
 One-electron integrals computed using PRISM.
 NBasis=   240 RedAO= T EigKep=  2.29D-06  NBF=   240
 NBsUse=   240 1.00D-06 EigRej= -1.00D+00 NBFU=   240
 Initial guess from the checkpoint file:  "TQUE0165.chk"
 B after Tr=    -0.000000   -0.000000   -0.000000
         Rot=    0.999986   -0.000009   -0.000013    0.005232 Ang=  -0.60 deg.
 ExpMin= 3.60D-02 ExpMax= 8.59D+03 ExpMxC= 1.30D+03 IAcc=3 IRadAn=         5 AccDes= 0.00D+00
 Harris functional with IExCor= 1009 and IRadAn=       5 diagonalized for initial guess.
 HarFok:  IExCor= 1009 AccDes= 0.00D+00 IRadAn=         5 IDoV= 1 UseB2=F ITyADJ=14
 ICtDFT=  3500011 ScaDFX=  1.000000  1.000000  1.000000  1.000000
 FoFCou: FMM=F IPFlag=           0 FMFlag=      100000 FMFlg1=           0
         NFxFlg=           0 DoJE=T BraDBF=F KetDBF=T FulRan=T
         wScrn=  0.000000 ICntrl=       500 IOpCl=  0 I1Cent=   200000004 NGrid=           0
         NMat0=    1 NMatS0=      1 NMatT0=    0 NMatD0=    1 NMtDS0=    0 NMtDT0=    0
 Petite list used in FoFCou.
 Requested convergence on RMS density matrix=1.00D-08 within  32 cycles.
 Requested convergence on MAX density matrix=1.00D-06.
 Requested convergence on             energy=1.00D-06.
 No special actions if energy rises.
 SCF Done:  E(RM08HX) =  -420.754210005     A.U. after   12 cycles
            NFock= 12  Conv=0.92D-08     -V/T= 2.0042
 QCSCF skips out because SCF is already converged.
 R6APFD:  NTU= -4 IXU= 1 FactS= 1.050
 Calling FoFJK, ICntrl=      2127 FMM=F ISym2X=0 I1Cent= 0 IOpClX= 0 NMat=1 NMatS=1 NMatT=0.
 ***** Axes restored to original set *****
 -------------------------------------------------------------------
 Center     Atomic                   Forces (Hartrees/Bohr)
 Number     Number              X              Y              Z
 -------------------------------------------------------------------
      1        8          -0.003666565   -0.000863519   -0.000043565
      2        8           0.004073628    0.001597403   -0.000034173
      3        6          -0.002286145   -0.004512241   -0.000033692
      4        6           0.006266079    0.003306668    0.000105847
      5        6           0.003291168    0.000394101   -0.000038215
      6        6          -0.000903605   -0.001329618    0.000011101
      7        6          -0.006617419   -0.003778346    0.000092563
      8        6          -0.004597630    0.000812334   -0.000032976
      9        6           0.004108729    0.003646462   -0.000035749
     10        1          -0.000760283   -0.000026431    0.000004998
     11        1          -0.000258427    0.000495848   -0.000002289
     12        1           0.000465878    0.000775798   -0.000400579
     13        1           0.000467253    0.000772742    0.000397175
     14        1           0.001237678   -0.000303646    0.000004749
     15        1          -0.000820340   -0.000987556    0.000004805
 -------------------------------------------------------------------
 Cartesian Forces:  Max     0.006617419 RMS     0.002303998

 GradGradGradGradGradGradGradGradGradGradGradGradGradGradGradGradGradGrad
 Berny optimization.
 Using GEDIIS/GDIIS optimizer.
 FormGI is forming the generalized inverse of G from B-inverse, IUseBI=4.
 Internal  Forces:  Max     0.004361821 RMS     0.001039718
 Search for a local minimum.
 Step number   2 out of a maximum of   79
 All quantities printed in internal units (Hartrees-Bohrs-Radians)
 Mixed Optimization -- RFO/linear search
 Update second derivatives using D2CorX and points    1    2
 DE= -1.73D-03 DEPred=-1.46D-03 R= 1.19D+00
 TightC=F SS=  1.41D+00  RLast= 9.91D-02 DXNew= 5.0454D-01 2.9735D-01
 Trust test= 1.19D+00 RLast= 9.91D-02 DXMaxT set to 3.00D-01
 ITU=  1  0
 Use linear search instead of GDIIS.
     Eigenvalues ---    0.00804   0.00986   0.01031   0.01080   0.01424
     Eigenvalues ---    0.01705   0.01891   0.02043   0.02260   0.02341
     Eigenvalues ---    0.07104   0.07239   0.14512   0.16000   0.16000
     Eigenvalues ---    0.16000   0.16000   0.16177   0.22333   0.23423
     Eigenvalues ---    0.24536   0.24715   0.25000   0.25674   0.32027
     Eigenvalues ---    0.32680   0.33181   0.33890   0.34219   0.34249
     Eigenvalues ---    0.34271   0.34820   0.35394   0.35486   0.35839
     Eigenvalues ---    0.54317   0.59190   0.87673   0.92747
 RFO step:  Lambda=-1.40041569D-04 EMin= 8.04371066D-03
 Quartic linear search produced a step of  0.22312.
 Iteration  1 RMS(Cart)=  0.00570046 RMS(Int)=  0.00003226
 Iteration  2 RMS(Cart)=  0.00003506 RMS(Int)=  0.00001031
 Iteration  3 RMS(Cart)=  0.00000000 RMS(Int)=  0.00001031
 Variable       Old X    -DE/DX   Delta X   Delta X   Delta X     New X
                                 (Linear)    (Quad)   (Total)
    R1        2.29008  -0.00376  -0.00638   0.00009  -0.00629   2.28380
    R2        2.29164  -0.00436  -0.00561  -0.00129  -0.00690   2.28474
    R3        2.82209   0.00337   0.00212   0.01062   0.01274   2.83483
    R4        2.53445  -0.00142   0.00104  -0.00383  -0.00279   2.53167
    R5        2.82742  -0.00064  -0.00038  -0.00207  -0.00245   2.82497
    R6        2.80699   0.00152   0.00300   0.00290   0.00590   2.81289
    R7        2.80071   0.00109   0.00188   0.00225   0.00413   2.80484
    R8        2.05881   0.00023   0.00182  -0.00068   0.00114   2.05995
    R9        2.06868  -0.00038  -0.00025  -0.00116  -0.00141   2.06727
   R10        2.07210   0.00006   0.00066  -0.00034   0.00033   2.07243
   R11        2.07209   0.00006   0.00067  -0.00033   0.00034   2.07243
   R12        2.80662   0.00269   0.00438   0.00567   0.01005   2.81667
   R13        2.52594  -0.00196   0.00129  -0.00515  -0.00386   2.52208
   R14        2.05774   0.00004   0.00189  -0.00139   0.00050   2.05824
   R15        2.05787  -0.00003   0.00211  -0.00183   0.00028   2.05815
    A1        2.08621  -0.00013  -0.00204   0.00123  -0.00081   2.08540
    A2        2.03074  -0.00085  -0.00328  -0.00152  -0.00479   2.02595
    A3        2.16623   0.00098   0.00531   0.00028   0.00560   2.17183
    A4        2.10436   0.00034  -0.00540   0.00611   0.00070   2.10506
    A5        2.11198  -0.00019   0.00254  -0.00309  -0.00055   2.11143
    A6        2.06685  -0.00016   0.00286  -0.00301  -0.00016   2.06669
    A7        2.13300   0.00018   0.00039   0.00072   0.00111   2.13411
    A8        2.12382   0.00065   0.00153   0.00386   0.00539   2.12921
    A9        2.02637  -0.00084  -0.00192  -0.00458  -0.00651   2.01986
   A10        1.93745  -0.00018  -0.00376   0.00444   0.00069   1.93813
   A11        1.92810  -0.00028   0.00008  -0.00349  -0.00344   1.92466
   A12        1.92807  -0.00028   0.00008  -0.00348  -0.00343   1.92464
   A13        1.90152   0.00063   0.00512   0.00288   0.00800   1.90952
   A14        1.90156   0.00063   0.00510   0.00286   0.00796   1.90952
   A15        1.86543  -0.00051  -0.00654  -0.00333  -0.00993   1.85550
   A16        2.11571   0.00052  -0.00025   0.00284   0.00259   2.11830
   A17        2.11163  -0.00030  -0.00105  -0.00049  -0.00155   2.11008
   A18        2.05584  -0.00021   0.00130  -0.00235  -0.00105   2.05479
   A19        2.11651  -0.00014  -0.00132   0.00022  -0.00110   2.11541
   A20        2.03225  -0.00125  -0.00440  -0.00578  -0.01018   2.02206
   A21        2.13443   0.00138   0.00572   0.00556   0.01129   2.14571
   A22        2.10797   0.00045  -0.00119   0.00318   0.00200   2.10996
   A23        2.03966  -0.00154  -0.00387  -0.00781  -0.01168   2.02798
   A24        2.13556   0.00109   0.00506   0.00463   0.00969   2.14524
    D1        3.14073   0.00002  -0.00011   0.00262   0.00251  -3.13994
    D2        0.00008  -0.00002   0.00019  -0.00239  -0.00220  -0.00211
    D3       -0.00081   0.00002  -0.00009   0.00281   0.00272   0.00191
    D4       -3.14146  -0.00001   0.00022  -0.00220  -0.00199   3.13974
    D5        0.00019  -0.00000  -0.00003   0.00004   0.00000   0.00019
    D6       -3.14155   0.00000  -0.00000   0.00027   0.00027  -3.14129
    D7       -3.14146  -0.00000  -0.00006  -0.00017  -0.00023   3.14150
    D8       -0.00002   0.00000  -0.00003   0.00007   0.00004   0.00002
    D9       -3.14155  -0.00000  -0.00001  -0.00011  -0.00012   3.14152
   D10        1.03023  -0.00049  -0.00403  -0.00435  -0.00836   1.02187
   D11       -1.03011   0.00048   0.00398   0.00411   0.00807  -1.02204
   D12        0.00010   0.00000   0.00002   0.00008   0.00010   0.00020
   D13       -2.11131  -0.00049  -0.00401  -0.00416  -0.00814  -2.11945
   D14        2.11154   0.00049   0.00401   0.00430   0.00829   2.11983
   D15       -3.14075  -0.00002   0.00012  -0.00262  -0.00249   3.13995
   D16        0.00076  -0.00002   0.00014  -0.00284  -0.00270  -0.00194
   D17       -0.00011   0.00002  -0.00018   0.00242   0.00224   0.00213
   D18        3.14140   0.00002  -0.00017   0.00220   0.00203  -3.13975
   D19       -3.14127  -0.00001   0.00013  -0.00188  -0.00176   3.14016
   D20       -0.00042   0.00002  -0.00014   0.00230   0.00215   0.00173
   D21        0.00046  -0.00002   0.00010  -0.00211  -0.00201  -0.00154
   D22        3.14131   0.00001  -0.00017   0.00207   0.00190  -3.13997
   D23        3.14124   0.00001  -0.00012   0.00190   0.00178  -3.14017
   D24       -0.00044   0.00002  -0.00014   0.00212   0.00198   0.00154
   D25        0.00039  -0.00002   0.00015  -0.00227  -0.00212  -0.00173
   D26       -3.14129  -0.00001   0.00014  -0.00205  -0.00191   3.13998
   D27       -0.00013  -0.00000   0.00001  -0.00007  -0.00006  -0.00020
   D28        3.14155  -0.00000   0.00003  -0.00030  -0.00028   3.14127
   D29        3.14154   0.00000  -0.00000   0.00017   0.00017  -3.14148
   D30        0.00005  -0.00000   0.00001  -0.00006  -0.00005  -0.00001
         Item               Value     Threshold  Converged?
 Maximum Force            0.004362     0.000450     NO 
 RMS     Force            0.001040     0.000300     NO 
 Maximum Displacement     0.021998     0.001800     NO 
 RMS     Displacement     0.005700     0.001200     NO 
 Predicted change in Energy=-1.353924D-04
 GradGradGradGradGradGradGradGradGradGradGradGradGradGradGradGradGradGrad

                          Input orientation:                          
 ---------------------------------------------------------------------
 Center     Atomic      Atomic             Coordinates (Angstroms)
 Number     Number       Type             X           Y           Z
 ---------------------------------------------------------------------
      1          8           0        2.286507    0.977632   -0.000397
      2          8           0       -2.779822   -0.539611   -0.000243
      3          6           0        0.770878   -0.827953    0.000250
      4          6           0        1.129447    0.628689    0.001350
      5          6           0       -0.519121   -1.189479    0.000309
      6          6           0        1.917592   -1.787015   -0.000506
      7          6           0       -1.620945   -0.194991    0.001195
      8          6           0        0.027475    1.629361   -0.000289
      9          6           0       -1.251833    1.249100   -0.000248
     10          1           0       -0.825785   -2.235535   -0.000184
     11          1           0        1.563948   -2.822229   -0.001208
     12          1           0        2.553487   -1.619750    0.877200
     13          1           0        2.553338   -1.618515   -0.878085
     14          1           0        0.334743    2.674296   -0.001214
     15          1           0       -2.079608    1.956902   -0.001131
 ---------------------------------------------------------------------
                    Distance matrix (angstroms):
                    1          2          3          4          5
     1  O    0.000000
     2  O    5.288641   0.000000
     3  C    2.357387   3.562389   0.000000
     4  C    1.208534   4.080112   1.500126   0.000000
     5  C    3.545126   2.352254   1.339701   2.454284   0.000000
     6  C    2.789152   4.860218   1.494909   2.541023   2.508908
     7  C    4.079611   1.209034   2.474158   2.871080   1.484259
     8  C    2.351165   3.547585   2.567302   1.488519   2.871346
     9  C    3.548739   2.352496   2.899225   2.460773   2.546279
    10  H    4.473344   2.587357   2.128525   3.467955   1.090081
    11  H    3.867950   4.907004   2.146183   3.478165   2.646705
    12  H    2.754605   5.511878   2.138616   2.801871   3.224126
    13  H    2.753455   5.511555   2.138604   2.801928   3.224229
    14  H    2.586127   4.475457   3.529301   2.194554   3.957000
    15  H    4.474587   2.592852   3.985058   3.473066   3.512099
                    6          7          8          9         10
     6  C    0.000000
     7  C    3.880178   0.000000
     8  C    3.904378   2.458770   0.000000
     9  C    4.388991   1.490518   1.334626   0.000000
    10  H    2.779800   2.190000   3.957963   3.510584   0.000000
    11  H    1.093953   4.128671   4.709289   4.950186   2.460698
    12  H    1.096680   4.497022   4.208022   4.845686   3.545204
    13  H    1.096682   4.497132   4.207043   4.844909   3.545406
    14  H    4.733783   3.472395   1.089176   2.132700   5.045123
    15  H    5.476725   2.200232   2.132389   1.089126   4.375912
                   11         12         13         14         15
    11  H    0.000000
    12  H    1.787944   0.000000
    13  H    1.787942   1.755285   0.000000
    14  H    5.632294   4.912562   4.911140   0.000000
    15  H    6.009625   5.918570   5.917504   2.518679   0.000000
 Stoichiometry    C7H6O2
 Framework group  C1[X(C7H6O2)]
 Deg. of freedom    39
 Full point group                 C1      NOp   1
 Largest Abelian subgroup         C1      NOp   1
 Largest concise Abelian subgroup C1      NOp   1
                         Standard orientation:                         
 ---------------------------------------------------------------------
 Center     Atomic      Atomic             Coordinates (Angstroms)
 Number     Number       Type             X           Y           Z
 ---------------------------------------------------------------------
      1          8           0       -2.142383    1.219923    0.000438
      2          8           0        2.770455   -0.738074    0.000284
      3          6           0       -0.791840   -0.712253   -0.000209
      4          6           0       -1.020591    0.770329   -0.001309
      5          6           0        0.461262   -1.186102   -0.000268
      6          6           0       -2.018643   -1.566483    0.000547
      7          6           0        1.646472   -0.292626   -0.001154
      8          6           0        0.165312    1.669952    0.000330
      9          6           0        1.406113    1.178384    0.000289
     10          1           0        0.674509   -2.255120    0.000225
     11          1           0       -1.757643   -2.628845    0.001249
     12          1           0       -2.637315   -1.343807   -0.877159
     13          1           0       -2.637059   -1.342590    0.878126
     14          1           0       -0.048636    2.737907    0.001255
     15          1           0        2.293066    1.810451    0.001172
 ---------------------------------------------------------------------
 Rotational constants (GHZ):           2.9702210           1.4452840           0.9780559
 Standard basis: 6-311++G(d,p) (5D, 7F)
 There are   249 symmetry adapted cartesian basis functions of A   symmetry.
 There are   240 symmetry adapted basis functions of A   symmetry.
   240 basis functions,   378 primitive gaussians,   249 cartesian basis functions
    32 alpha electrons       32 beta electrons
       nuclear repulsion energy       404.6018640076 Hartrees.
 NAtoms=   15 NActive=   15 NUniq=   15 SFac= 1.00D+00 NAtFMM=   60 NAOKFM=F Big=F
 Integral buffers will be    131072 words long.
 Raffenetti 2 integral format.
 Two-electron integral symmetry is turned on.
 R6APFD:  NTU= -4 IXU= 1 FactS= 1.050
 Nuclear repulsion after empirical dispersion term =      404.5939974357 Hartrees.
 One-electron integrals computed using PRISM.
 NBasis=   240 RedAO= T EigKep=  2.31D-06  NBF=   240
 NBsUse=   240 1.00D-06 EigRej= -1.00D+00 NBFU=   240
 Initial guess from the checkpoint file:  "TQUE0165.chk"
 B after Tr=    -0.000000    0.000000    0.000000
         Rot=    1.000000   -0.000003   -0.000007    0.000204 Ang=  -0.02 deg.
 ExpMin= 3.60D-02 ExpMax= 8.59D+03 ExpMxC= 1.30D+03 IAcc=3 IRadAn=         5 AccDes= 0.00D+00
 Harris functional with IExCor= 1009 and IRadAn=       5 diagonalized for initial guess.
 HarFok:  IExCor= 1009 AccDes= 0.00D+00 IRadAn=         5 IDoV= 1 UseB2=F ITyADJ=14
 ICtDFT=  3500011 ScaDFX=  1.000000  1.000000  1.000000  1.000000
 FoFCou: FMM=F IPFlag=           0 FMFlag=      100000 FMFlg1=           0
         NFxFlg=           0 DoJE=T BraDBF=F KetDBF=T FulRan=T
         wScrn=  0.000000 ICntrl=       500 IOpCl=  0 I1Cent=   200000004 NGrid=           0
         NMat0=    1 NMatS0=      1 NMatT0=    0 NMatD0=    1 NMtDS0=    0 NMtDT0=    0
 Petite list used in FoFCou.
 Requested convergence on RMS density matrix=1.00D-08 within  32 cycles.
 Requested convergence on MAX density matrix=1.00D-06.
 Requested convergence on             energy=1.00D-06.
 No special actions if energy rises.
 SCF Done:  E(RM08HX) =  -420.754354075     A.U. after   12 cycles
            NFock= 12  Conv=0.59D-08     -V/T= 2.0042
 QCSCF skips out because SCF is already converged.
 R6APFD:  NTU= -4 IXU= 1 FactS= 1.050
 Calling FoFJK, ICntrl=      2127 FMM=F ISym2X=0 I1Cent= 0 IOpClX= 0 NMat=1 NMatS=1 NMatT=0.
 ***** Axes restored to original set *****
 -------------------------------------------------------------------
 Center     Atomic                   Forces (Hartrees/Bohr)
 Number     Number              X              Y              Z
 -------------------------------------------------------------------
      1        8           0.000508254    0.000116875    0.000157511
      2        8          -0.000521759    0.000017963    0.000128968
      3        6          -0.000769531   -0.000511615    0.000162000
      4        6           0.000155194    0.000179018   -0.000435927
      5        6           0.000669183    0.000227900    0.000133471
      6        6          -0.000177208   -0.000129498   -0.000024495
      7        6           0.000022183   -0.000460427   -0.000354926
      8        6          -0.001115941   -0.000058086    0.000153010
      9        6           0.000995297    0.000734607    0.000133259
     10        1          -0.000096951    0.000073806   -0.000020836
     11        1           0.000144095    0.000088499    0.000001248
     12        1           0.000072620    0.000052483    0.000029003
     13        1           0.000076691    0.000049223   -0.000026102
     14        1           0.000226929   -0.000132005   -0.000015146
     15        1          -0.000189058   -0.000248746   -0.000021040
 -------------------------------------------------------------------
 Cartesian Forces:  Max     0.001115941 RMS     0.000354845

 GradGradGradGradGradGradGradGradGradGradGradGradGradGradGradGradGradGrad
 Berny optimization.
 Using GEDIIS/GDIIS optimizer.
 FormGI is forming the generalized inverse of G from B-inverse, IUseBI=4.
 Internal  Forces:  Max     0.000558844 RMS     0.000180603
 Search for a local minimum.
 Step number   3 out of a maximum of   79
 All quantities printed in internal units (Hartrees-Bohrs-Radians)
 Mixed Optimization -- En-DIIS/RFO-DIIS
 Update second derivatives using D2CorX and points    1    2    3
 DE= -1.44D-04 DEPred=-1.35D-04 R= 1.06D+00
 TightC=F SS=  1.41D+00  RLast= 4.04D-02 DXNew= 5.0454D-01 1.2134D-01
 Trust test= 1.06D+00 RLast= 4.04D-02 DXMaxT set to 3.00D-01
 ITU=  1  1  0
 Use linear search instead of GDIIS.
     Eigenvalues ---    0.00804   0.00990   0.01039   0.01084   0.01427
     Eigenvalues ---    0.01707   0.01899   0.02050   0.02260   0.02350
     Eigenvalues ---    0.07089   0.07220   0.13418   0.16000   0.16000
     Eigenvalues ---    0.16000   0.16029   0.16240   0.22343   0.23251
     Eigenvalues ---    0.24061   0.24796   0.25010   0.25745   0.31593
     Eigenvalues ---    0.32701   0.33119   0.33874   0.34228   0.34249
     Eigenvalues ---    0.34293   0.34820   0.35396   0.35488   0.35809
     Eigenvalues ---    0.54332   0.58431   0.92569   0.94152
 RFO step:  Lambda=-1.49397156D-05 EMin= 8.04371240D-03
 Quartic linear search produced a step of  0.10215.
 Iteration  1 RMS(Cart)=  0.00306552 RMS(Int)=  0.00001458
 Iteration  2 RMS(Cart)=  0.00001454 RMS(Int)=  0.00000989
 Iteration  3 RMS(Cart)=  0.00000000 RMS(Int)=  0.00000989
 Variable       Old X    -DE/DX   Delta X   Delta X   Delta X     New X
                                 (Linear)    (Quad)   (Total)
    R1        2.28380   0.00052  -0.00064   0.00060  -0.00004   2.28375
    R2        2.28474   0.00049  -0.00070   0.00063  -0.00007   2.28467
    R3        2.83483   0.00034   0.00130   0.00061   0.00191   2.83674
    R4        2.53167  -0.00038  -0.00028  -0.00053  -0.00082   2.53085
    R5        2.82497   0.00005  -0.00025   0.00027   0.00002   2.82498
    R6        2.81289   0.00025   0.00060   0.00064   0.00124   2.81413
    R7        2.80484   0.00009   0.00042   0.00016   0.00058   2.80543
    R8        2.05995  -0.00004   0.00012  -0.00010   0.00001   2.05997
    R9        2.06727  -0.00013  -0.00014  -0.00036  -0.00050   2.06677
   R10        2.07243   0.00007   0.00003   0.00025   0.00028   2.07271
   R11        2.07243   0.00007   0.00003   0.00025   0.00028   2.07271
   R12        2.81667   0.00038   0.00103   0.00088   0.00191   2.81858
   R13        2.52208  -0.00056  -0.00039  -0.00080  -0.00120   2.52088
   R14        2.05824  -0.00006   0.00005  -0.00012  -0.00007   2.05817
   R15        2.05815  -0.00002   0.00003   0.00003   0.00006   2.05821
    A1        2.08540   0.00008  -0.00008   0.00030   0.00022   2.08562
    A2        2.02595  -0.00035  -0.00049  -0.00146  -0.00196   2.02400
    A3        2.17183   0.00027   0.00057   0.00117   0.00174   2.17357
    A4        2.10506   0.00005   0.00007  -0.00003  -0.00000   2.10506
    A5        2.11143   0.00014  -0.00006   0.00076   0.00066   2.11209
    A6        2.06669  -0.00019  -0.00002  -0.00067  -0.00072   2.06597
    A7        2.13411   0.00008   0.00011   0.00039   0.00050   2.13461
    A8        2.12921   0.00008   0.00055   0.00041   0.00096   2.13017
    A9        2.01986  -0.00016  -0.00066  -0.00079  -0.00146   2.01841
   A10        1.93813   0.00018   0.00007   0.00131   0.00138   1.93951
   A11        1.92466  -0.00005  -0.00035  -0.00028  -0.00064   1.92402
   A12        1.92464  -0.00004  -0.00035  -0.00019  -0.00055   1.92410
   A13        1.90952  -0.00003   0.00082  -0.00016   0.00066   1.91018
   A14        1.90952  -0.00003   0.00081  -0.00014   0.00068   1.91019
   A15        1.85550  -0.00004  -0.00101  -0.00063  -0.00165   1.85385
   A16        2.11830   0.00027   0.00026   0.00108   0.00132   2.11963
   A17        2.11008  -0.00011  -0.00016  -0.00042  -0.00061   2.10948
   A18        2.05479  -0.00016  -0.00011  -0.00062  -0.00075   2.05404
   A19        2.11541   0.00008  -0.00011   0.00035   0.00024   2.11565
   A20        2.02206  -0.00031  -0.00104  -0.00168  -0.00273   2.01933
   A21        2.14571   0.00022   0.00115   0.00134   0.00249   2.14820
   A22        2.10996   0.00011   0.00020   0.00029   0.00049   2.11046
   A23        2.02798  -0.00037  -0.00119  -0.00201  -0.00321   2.02477
   A24        2.14524   0.00027   0.00099   0.00172   0.00271   2.14796
    D1       -3.13994  -0.00007   0.00026  -0.00822  -0.00797   3.13528
    D2       -0.00211   0.00008  -0.00022   0.00830   0.00807   0.00596
    D3        0.00191  -0.00008   0.00028  -0.00918  -0.00890  -0.00699
    D4        3.13974   0.00007  -0.00020   0.00734   0.00714  -3.13631
    D5        0.00019  -0.00000   0.00000  -0.00040  -0.00040  -0.00021
    D6       -3.14129  -0.00002   0.00003  -0.00119  -0.00116   3.14074
    D7        3.14150   0.00001  -0.00002   0.00064   0.00062  -3.14107
    D8        0.00002  -0.00001   0.00000  -0.00015  -0.00014  -0.00012
    D9        3.14152   0.00000  -0.00001   0.00049   0.00048  -3.14119
   D10        1.02187  -0.00005  -0.00085   0.00001  -0.00084   1.02102
   D11       -1.02204   0.00006   0.00082   0.00107   0.00189  -1.02015
   D12        0.00020  -0.00001   0.00001  -0.00051  -0.00050  -0.00030
   D13       -2.11945  -0.00006  -0.00083  -0.00100  -0.00183  -2.12128
   D14        2.11983   0.00005   0.00085   0.00006   0.00090   2.12073
   D15        3.13995   0.00007  -0.00025   0.00819   0.00794  -3.13530
   D16       -0.00194   0.00009  -0.00028   0.00916   0.00889   0.00695
   D17        0.00213  -0.00008   0.00023  -0.00839  -0.00816  -0.00603
   D18       -3.13975  -0.00007   0.00021  -0.00742  -0.00721   3.13622
   D19        3.14016   0.00005  -0.00018   0.00613   0.00595  -3.13707
   D20        0.00173  -0.00007   0.00022  -0.00744  -0.00722  -0.00549
   D21       -0.00154   0.00007  -0.00021   0.00687   0.00667   0.00512
   D22       -3.13997  -0.00006   0.00019  -0.00670  -0.00650   3.13671
   D23       -3.14017  -0.00006   0.00018  -0.00612  -0.00593   3.13709
   D24        0.00154  -0.00007   0.00020  -0.00679  -0.00658  -0.00504
   D25       -0.00173   0.00007  -0.00022   0.00738   0.00717   0.00544
   D26        3.13998   0.00006  -0.00020   0.00671   0.00652  -3.13669
   D27       -0.00020   0.00001  -0.00001   0.00048   0.00047   0.00028
   D28        3.14127   0.00002  -0.00003   0.00119   0.00117  -3.14074
   D29       -3.14148  -0.00001   0.00002  -0.00056  -0.00055   3.14116
   D30       -0.00001   0.00000  -0.00001   0.00015   0.00015   0.00014
         Item               Value     Threshold  Converged?
 Maximum Force            0.000559     0.000450     NO 
 RMS     Force            0.000181     0.000300     YES
 Maximum Displacement     0.012500     0.001800     NO 
 RMS     Displacement     0.003066     0.001200     NO 
 Predicted change in Energy=-8.724674D-06
 GradGradGradGradGradGradGradGradGradGradGradGradGradGradGradGradGradGrad

                          Input orientation:                          
 ---------------------------------------------------------------------
 Center     Atomic      Atomic             Coordinates (Angstroms)
 Number     Number       Type             X           Y           Z
 ---------------------------------------------------------------------
      1          8           0        2.287082    0.976213    0.000869
      2          8           0       -2.781230   -0.538145    0.001107
      3          6           0        0.769862   -0.829195   -0.001745
      4          6           0        1.129796    0.628149   -0.005265
      5          6           0       -0.519920   -1.189894   -0.001326
      6          6           0        1.917719   -1.786900    0.000187
      7          6           0       -1.621922   -0.195145   -0.003975
      8          6           0        0.027404    1.629325   -0.000389
      9          6           0       -1.251410    1.249626    0.000055
     10          1           0       -0.828164   -2.235492    0.000394
     11          1           0        1.566818   -2.822766    0.002302
     12          1           0        2.553774   -1.615046    0.877077
     13          1           0        2.553831   -1.618635   -0.877358
     14          1           0        0.337576    2.673358    0.002077
     15          1           0       -2.080915    1.955447    0.002788
 ---------------------------------------------------------------------
                    Distance matrix (angstroms):
                    1          2          3          4          5
     1  O    0.000000
     2  O    5.289714   0.000000
     3  C    2.358275   3.563001   0.000000
     4  C    1.208511   4.081226   1.501138   0.000000
     5  C    3.545601   2.353361   1.339269   2.454966   0.000000
     6  C    2.787692   4.862048   1.494918   2.540338   2.509682
     7  C    4.080737   1.208996   2.474400   2.872240   1.484568
     8  C    2.352170   3.547725   2.568183   1.489176   2.871856
     9  C    3.549040   2.352972   2.899490   2.460976   2.546829
    10  H    4.474349   2.587558   2.128699   3.469016   1.090088
    11  H    3.866655   4.911723   2.146970   3.478485   2.649672
    12  H    2.748361   5.512650   2.138277   2.799672   3.224894
    13  H    2.752395   5.513804   2.138331   2.799368   3.224778
    14  H    2.584739   4.476685   3.529131   2.193296   3.957275
    15  H    4.476416   2.590066   3.985119   3.474255   3.511394
                    6          7          8          9         10
     6  C    0.000000
     7  C    3.881077   0.000000
     8  C    3.904342   2.459467   0.000000
     9  C    4.389063   1.491529   1.333993   0.000000
    10  H    2.782284   2.189312   3.958384   3.510724   0.000000
    11  H    1.093688   4.131888   4.710723   4.952454   2.465935
    12  H    1.096830   4.497645   4.204573   4.843030   3.548383
    13  H    1.096830   4.497336   4.207274   4.845270   3.548076
    14  H    4.731888   3.473899   1.089137   2.133517   5.045370
    15  H    5.476699   2.199037   2.133395   1.089159   4.374169
                   11         12         13         14         15
    11  H    0.000000
    12  H    1.788267   0.000000
    13  H    1.788274   1.754438   0.000000
    14  H    5.631911   4.905871   4.909827   0.000000
    15  H    6.011428   5.915500   5.918580   2.522795   0.000000
 Stoichiometry    C7H6O2
 Framework group  C1[X(C7H6O2)]
 Deg. of freedom    39
 Full point group                 C1      NOp   1
 Largest Abelian subgroup         C1      NOp   1
 Largest concise Abelian subgroup C1      NOp   1
                         Standard orientation:                         
 ---------------------------------------------------------------------
 Center     Atomic      Atomic             Coordinates (Angstroms)
 Number     Number       Type             X           Y           Z
 ---------------------------------------------------------------------
      1          8           0       -2.143117    1.219056   -0.001676
      2          8           0        2.771636   -0.737029   -0.001914
      3          6           0       -0.791285   -0.713301    0.000938
      4          6           0       -1.021095    0.770138    0.004458
      5          6           0        0.461599   -1.186507    0.000519
      6          6           0       -2.019242   -1.565882   -0.000994
      7          6           0        1.647153   -0.292976    0.003168
      8          6           0        0.165414    1.670035   -0.000418
      9          6           0        1.405695    1.178873   -0.000862
     10          1           0        0.676288   -2.255243   -0.001201
     11          1           0       -1.761203   -2.628692   -0.003109
     12          1           0       -2.637633   -1.338522   -0.877884
     13          1           0       -2.638007   -1.342092    0.876551
     14          1           0       -0.051334    2.737383   -0.002884
     15          1           0        2.294297    1.808671   -0.003595
 ---------------------------------------------------------------------
 Rotational constants (GHZ):           2.9712174           1.4443558           0.9777348
 Standard basis: 6-311++G(d,p) (5D, 7F)
 There are   249 symmetry adapted cartesian basis functions of A   symmetry.
 There are   240 symmetry adapted basis functions of A   symmetry.
   240 basis functions,   378 primitive gaussians,   249 cartesian basis functions
    32 alpha electrons       32 beta electrons
       nuclear repulsion energy       404.5545080705 Hartrees.
 NAtoms=   15 NActive=   15 NUniq=   15 SFac= 1.00D+00 NAtFMM=   60 NAOKFM=F Big=F
 Integral buffers will be    131072 words long.
 Raffenetti 2 integral format.
 Two-electron integral symmetry is turned on.
 R6APFD:  NTU= -4 IXU= 1 FactS= 1.050
 Nuclear repulsion after empirical dispersion term =      404.5466401512 Hartrees.
 One-electron integrals computed using PRISM.
 NBasis=   240 RedAO= T EigKep=  2.32D-06  NBF=   240
 NBsUse=   240 1.00D-06 EigRej= -1.00D+00 NBFU=   240
 Initial guess from the checkpoint file:  "TQUE0165.chk"
 B after Tr=     0.000000   -0.000000    0.000000
         Rot=    1.000000   -0.000009    0.000007   -0.000060 Ang=  -0.01 deg.
 Requested convergence on RMS density matrix=1.00D-08 within  32 cycles.
 Requested convergence on MAX density matrix=1.00D-06.
 Requested convergence on             energy=1.00D-06.
 No special actions if energy rises.
 SCF Done:  E(RM08HX) =  -420.754349019     A.U. after   12 cycles
            NFock= 12  Conv=0.61D-08     -V/T= 2.0042
 QCSCF skips out because SCF is already converged.
 R6APFD:  NTU= -4 IXU= 1 FactS= 1.050
 Calling FoFJK, ICntrl=      2127 FMM=F ISym2X=0 I1Cent= 0 IOpClX= 0 NMat=1 NMatS=1 NMatT=0.
 ***** Axes restored to original set *****
 -------------------------------------------------------------------
 Center     Atomic                   Forces (Hartrees/Bohr)
 Number     Number              X              Y              Z
 -------------------------------------------------------------------
      1        8           0.000263966    0.000135485   -0.000519402
      2        8          -0.000305265   -0.000073357   -0.000411972
      3        6          -0.000063898    0.000099655   -0.000524279
      4        6          -0.000324914   -0.000163692    0.001417882
      5        6          -0.000100540    0.000016071   -0.000436867
      6        6          -0.000004922    0.000083492    0.000081549
      7        6           0.000462397    0.000071016    0.001136504
      8        6           0.000028986   -0.000045598   -0.000490627
      9        6           0.000031757    0.000001362   -0.000435421
     10        1           0.000035524    0.000006694    0.000069892
     11        1           0.000056286   -0.000032873   -0.000002908
     12        1          -0.000025208   -0.000040387    0.000023690
     13        1          -0.000041480   -0.000029756   -0.000030885
     14        1          -0.000012469   -0.000003168    0.000051938
     15        1          -0.000000220   -0.000024945    0.000070904
 -------------------------------------------------------------------
 Cartesian Forces:  Max     0.001417882 RMS     0.000341327

 GradGradGradGradGradGradGradGradGradGradGradGradGradGradGradGradGradGrad
 Berny optimization.
 Using GEDIIS/GDIIS optimizer.
 FormGI is forming the generalized inverse of G from B-inverse, IUseBI=4.
 Internal  Forces:  Max     0.000311641 RMS     0.000125925
 Search for a local minimum.
 Step number   4 out of a maximum of   79
 All quantities printed in internal units (Hartrees-Bohrs-Radians)
 Mixed Optimization -- En-DIIS/RFO-DIIS
 Swapping is turned off.
 Update second derivatives using D2CorX and points    1    2    3    4
 DE=  5.06D-06 DEPred=-8.72D-06 R=-5.79D-01
 Trust test=-5.79D-01 RLast= 3.07D-02 DXMaxT set to 1.50D-01
 ITU= -1  1  1  0
     Eigenvalues ---    0.00804   0.01002   0.01068   0.01426   0.01708
     Eigenvalues ---    0.01893   0.02025   0.02258   0.02346   0.03210
     Eigenvalues ---    0.06168   0.07210   0.10518   0.16000   0.16000
     Eigenvalues ---    0.16005   0.16033   0.16104   0.22287   0.22690
     Eigenvalues ---    0.23666   0.24739   0.25002   0.25591   0.30987
     Eigenvalues ---    0.32704   0.33077   0.33888   0.34222   0.34249
     Eigenvalues ---    0.34314   0.34847   0.35390   0.35484   0.35767
     Eigenvalues ---    0.54327   0.57310   0.90356   0.92715
 En-DIIS/RFO-DIIS/Sim-DIIS IScMMF=       -3 using points:     4    3
 RFO step:  Lambda=-2.38159217D-05.
 DidBck=T Rises=T En-DIIS coefs:    0.44382    0.55618
 Iteration  1 RMS(Cart)=  0.00238002 RMS(Int)=  0.00000818
 Iteration  2 RMS(Cart)=  0.00001015 RMS(Int)=  0.00000296
 Iteration  3 RMS(Cart)=  0.00000000 RMS(Int)=  0.00000296
[...]
   yx         0.740877D+01      0.109787D+01      0.122154D+01
   yy         0.809550D+02      0.119963D+02      0.133477D+02
   zx        -0.461251D-02     -0.683504D-03     -0.760501D-03
   zy        -0.117201D-02     -0.173674D-03     -0.193238D-03
   zz         0.491302D+02      0.728034D+01      0.810047D+01

 ----------------------------------------------------------------------

 Dipole orientation:
     8          0.96771553          2.94729086          3.53036976
     8         -0.81223699         -2.47646494         -4.67605450
     6         -0.32284176         -0.98276463          1.87088755
     6          0.55999890          1.70437886          1.65780614
     6         -0.76209096         -2.32091903         -0.23178638
     6         -0.64872458         -1.97313641          4.49647160
     6         -0.40707077         -1.24168228         -2.79642474
     6          0.91861983          2.79415882         -0.91152102
     6          0.47079318          1.42990466         -2.98337128
     1         -1.40471767         -4.27696184         -0.16801716
     1         -1.29373978         -3.93664242          4.47821460
     1         -2.01195030         -0.80970101          5.53767127
     1          1.13848107         -1.84462972          5.53831768
     1          1.56079123          4.74863673         -0.97072724
     1          0.71396368          2.16874902         -4.88887240

 Electric dipole moment (dipole orientation):
 (Debye = 10**-18 statcoulomb cm , SI units = C m)
                  (au)            (Debye)         (10**-30 SI)
   Tot        0.318134D+00      0.808615D+00      0.269725D+01
   x          0.000000D+00      0.000000D+00      0.000000D+00
   y          0.000000D+00      0.000000D+00      0.000000D+00
   z          0.318134D+00      0.808615D+00      0.269725D+01

 Dipole polarizability, Alpha (dipole orientation).
 (esu units = cm**3 , SI units = C**2 m**2 J**-1)
 Alpha(0;0):
               (au)            (10**-24 esu)      (10**-40 SI)
   iso        0.851861D+02      0.126233D+02      0.140453D+02
   aniso      0.676473D+02      0.100243D+02      0.111535D+02
   xx         0.530785D+02      0.786543D+01      0.875147D+01
   yx         0.120221D+02      0.178150D+01      0.198218D+01
   yy         0.857357D+02      0.127047D+02      0.141359D+02
   zx         0.596868D+01      0.884467D+00      0.984103D+00
   zy         0.182119D+02      0.269872D+01      0.300274D+01
   zz         0.116744D+03      0.172997D+02      0.192485D+02

 ----------------------------------------------------------------------
 1\1\GINC-PITOMBA\Freq\RM08HX\6-311++G(d,p)\C7H6O2\VALTER\27-Sep-2025\0
 \\#N Geom=AllCheck Guess=TCheck SCRF=Check GenChk RM08HX/6-311++G(d,p)
  Freq\\TQUE0165\\0,1\O,2.2871831665,0.9765475341,-0.0002548428\O,-2.78
 12893709,-0.5380640133,-0.0000045047\C,0.7697527863,-0.8290280292,-0.0
 002399678\C,1.1297327905,0.6281604484,-0.0002883544\C,-0.5199534748,-1
 .1898522841,-0.0001187897\C,1.9175774626,-1.7868013964,-0.0003077284\C
 ,-1.6216934367,-0.195126901,-0.0000322427\C,0.0274753047,1.6292609636,
 -0.000270286\C,-1.251271473,1.2495342836,-0.0001511658\H,-0.8279117787
 ,-2.2354916253,-0.0000796367\H,1.5670865812,-2.8228339417,-0.000289369
 4\H,2.5535293438,-1.6170045467,0.8770487655\H,2.5534262708,-1.61700098
 61,-0.877737945\H,0.3374586455,2.6733278543,-0.0003395712\H,-2.0808028
 18,1.9552726397,-0.0001343608\\Version=ES64L-G16RevB.01\State=1-A\HF=-
 420.7543596\RMSD=6.220e-09\RMSF=1.999e-05\ZeroPoint=0.1128355\Thermal=
 0.1208085\Dipole=0.3022447,-0.0992831,-0.00008\DipoleDeriv=-1.2071641,
 -0.214154,0.0000364,-0.1902747,-0.6083398,0.0000109,0.000014,0.0000045
 ,-0.3366902,-1.3065161,-0.1494351,0.0000843,-0.1927476,-0.5906939,0.00
 00241,0.0000593,0.0000169,-0.3591836,0.3258926,-0.2605344,-0.0000364,-
 0.371102,-0.1869995,0.0000329,0.0000115,0.0000354,-0.0610015,1.3225054
 ,0.1626282,-0.0000257,0.1468612,0.8720386,-0.0000186,-0.0000505,-0.000
 0274,0.2744835,-0.4705068,0.2722854,0.0000207,0.3166802,-0.0847096,-0.
 0000247,0.0000462,-0.0000174,-0.1324104,-0.1616909,0.0940911,0.000011,
 0.0802715,0.0096066,-0.0000036,-0.0000203,0.0000025,0.0614843,1.464956
 5,0.0713104,-0.0000993,0.0102539,0.9349835,-0.0000244,-0.0001212,-0.00
 00381,0.2959419,-0.2555972,0.1565024,-0.000004,0.2777403,-0.0442755,-0
 .0000306,0.0000215,-0.0000009,-0.1223368,0.0543063,-0.1257919,-0.00000
 45,-0.1799135,-0.272299,0.0000202,0.0000214,0.0000182,-0.1072349,0.060
 9403,-0.0019057,0.0000047,0.0088589,-0.0470321,0.0000043,0.0000025,-0.
 0000033,0.1349812,0.0308055,-0.082249,0.0000043,0.0113627,-0.0838,-0.0
 000013,0.000008,0.0000049,0.0843001,0.0293786,0.02166,-0.0440698,0.021
 4456,0.0592545,-0.0494695,-0.0673056,-0.0113262,-0.0048907,0.0293898,0
 .0216602,0.0440689,0.0214446,0.0592512,0.0494684,0.0673142,0.0113201,-
 0.0049111,0.0548522,-0.0167041,0.0000046,0.0047878,-0.0256617,0.000010
 6,-0.0000022,0.0000036,0.1381003,0.0284478,0.0506364,0.000005,0.034331
 2,0.0086768,0.0000013,0.0000012,0.0000073,0.139368\Polar=125.4733049,7
 .4087708,80.9549678,-0.0046125,-0.001172,49.1301619\Quadrupole=-8.5881
 279,6.6356751,1.9524527,-6.0135109,0.0003196,0.0000184\PG=C01 [X(C7H6O
 2)]\NImag=0\\0.80506136,0.21185294,0.16280739,0.00001822,0.00000449,0.
 02366343,-0.00094829,-0.00140588,0.00000025,0.80353875,-0.00138182,0.0
 0342118,0.00000001,0.21130939,0.15485210,0.00000038,0.00000003,-0.0001
 6883,-0.00002518,-0.00000837,0.02376883,-0.03778661,-0.05710397,-0.000
 00038,0.00442850,0.00479696,0.,0.84014582,-0.03848165,-0.01560832,0.00
 000045,0.01014469,-0.00094592,0.00000032,0.04756756,0.54502363,-0.0000
 0031,-0.00000102,0.01950003,0.00000030,-0.00000068,0.00252539,-0.00005
 650,-0.00001167,0.14252244,-0.69791726,-0.17678641,-0.00001633,0.00037
 352,0.00329149,-0.00000036,-0.08500817,0.01198843,0.00000205,0.9410328
 3,-0.17929139,-0.15761590,-0.00000429,0.00446750,-0.01033952,0.0000000
 7,0.00925249,-0.19839796,0.00000457,0.11129158,0.56152543,-0.00001681,
 -0.00000457,-0.06070639,-0.00000121,-0.00000016,0.00196148,0.00000446,
 0.00000282,-0.07049097,0.00000691,-0.00000133,0.18073317,0.00814125,-0
 .00002012,0.00000053,-0.07938682,0.02277882,0.00000413,-0.49299404,-0.
 10745761,0.00004361,-0.01492262,-0.00945446,-0.00000113,0.79715032,-0.
 00438069,-0.00980378,-0.00000091,-0.00234684,0.02468006,-0.00000061,-0
 .11571962,-0.15260958,0.00001414,-0.03407636,-0.00344587,0.00000445,0.
 11258130,0.66834034,-0.00000014,0.00000042,0.00198436,0.00000329,-0.00
 000096,0.02026569,0.00004407,0.00001206,-0.04086818,0.00000132,-0.0000
 0009,-0.00536405,-0.00006321,-0.00001895,0.10196328,-0.00151398,-0.001
 75807,-0.00000029,-0.00400098,0.00145460,-0.00000011,-0.16852830,0.068
 37335,0.00000669,0.01169014,0.00179520,-0.00000015,-0.03225339,0.02463
 039,0.00000305,0.52412154,0.00356977,-0.00039139,0.00000032,-0.0014524
 5,0.00132871,-0.00000014,0.07677305,-0.15156436,-0.00000543,0.02350219
 ,-0.02724901,-0.00000169,-0.00359449,0.01157273,0.00000072,0.04422810,
 0.57032201,0.00000023,0.00000044,-0.00179049,0.00000047,-0.00000021,-0
 .00336107,0.00000625,-0.00000445,-0.07150646,-0.00000085,0.00000042,0.
 00322075,0.00000356,-0.00000225,0.01137255,-0.00000200,-0.00000281,0.5
 3084603,0.00010346,0.00366326,-0.00000009,-0.69509124,-0.17581642,0.00
 001740,-0.03561525,0.01520517,0.00000111,0.00131394,-0.01076082,0.0000
 0061,-0.12116503,0.06258650,0.00000855,0.00446702,-0.00244485,0.000001
 20,0.93576702,0.00289939,-0.00975681,0.00000016,-0.17680194,-0.1561139
 5,0.00000596,0.00004154,0.01125743,0.00000104,-0.00765639,0.02972139,-
 0.00000049,0.05558468,-0.19025261,-0.00000470,-0.00812230,-0.00336716,
 0.00000056,0.11565930,0.56755332,-0.00000127,-0.00000016,0.00179528,0.
 00001868,0.00000618,-0.06121551,0.00000165,-0.00000323,-0.00783962,0.0
 0000033,-0.00000053,-0.01059660,0.00000754,-0.00000302,-0.06635580,0.0
 0000111,0.00000080,0.01647141,-0.00003233,-0.00001288,0.18278736,-0.07
 709651,0.02207712,-0.00000135,0.00808554,-0.00016164,0.00000033,0.0148
 2869,0.00138325,-0.00000154,-0.12100655,0.05575737,0.00000413,-0.00388
 611,0.00334281,0.00000084,-0.00111941,-0.00311893,0.00000017,-0.014974
 79,-0.01173304,-0.00000020,0.80381754,-0.00307858,0.02434098,-0.000000
 89,-0.00504480,-0.00878246,-0.00000002,0.02249983,-0.02071632,-0.00000
 100,0.06035483,-0.18875941,0.00000317,0.00273450,-0.00131436,-0.000000
 25,-0.00347292,-0.00390878,0.00000038,-0.03262792,-0.00240806,0.000003
 57,0.13119339,0.66727465,-0.00000119,0.00000071,0.01996217,0.00000037,
 0.00000127,0.00141945,-0.00000256,0.00000110,0.00697054,0.00000330,0.0
 0000069,-0.06477391,0.00000104,-0.00000095,0.00918392,0.00000013,0.000
 00024,0.00101418,0.00000226,-0.00000068,-0.00535240,-0.00005621,-0.000
 03804,0.09909210,0.00144531,0.00592003,-0.00000009,-0.03724974,-0.0625
 6772,0.00000397,-0.00120338,-0.00217784,0.00000055,-0.03220439,-0.0062
 4314,0.00000110,0.01457695,0.02195598,-0.00000222,-0.00008494,-0.00007
 088,-0.00000008,-0.08680068,0.01141694,0.00000399,-0.51732721,-0.11962
 650,0.00004692,0.88270121,0.01128479,-0.00139577,0.00000118,-0.0380129
 6,-0.01452861,0.00000313,-0.00465538,-0.00377228,0.00000162,0.01385582
 ,0.01484329,-0.00000470,0.00176246,-0.02394664,0.00000147,0.00117880,0
 .00055224,-0.00000023,0.00847965,-0.21824458,0.00000867,-0.11268233,-0
 .15900995,0.00001608,0.00650446,0.58621738,-0.00000018,-0.00000037,0.0
 0199119,0.00000238,0.00000271,0.02033653,0.00000089,0.00000073,0.00855
 076,0.00000044,0.00000009,-0.00638853,-0.00000105,-0.00000124,0.006924
 49,-0.00000029,-0.00000013,-0.00259192,0.00000355,0.00001091,-0.067320
 48,0.00004655,0.00001817,-0.03502657,-0.00006023,-0.00002894,0.1023083
 3,-0.00170378,-0.00295747,-0.00000042,0.00175437,-0.00308467,-0.000000
 20,-0.00377663,-0.03017300,0.00000200,-0.00402150,0.00335745,0.0000018
 3,-0.07514764,-0.07392929,0.00000444,0.00129535,-0.00168842,-0.0000008
 9,0.00903185,0.02405441,-0.00000095,-0.00001795,-0.00043097,-0.0000003
 6,-0.00401364,0.00235719,0.00000040,0.07659154,-0.00084158,-0.00018227
 ,-0.00000002,0.00051862,0.00332372,-0.00000006,-0.00042244,-0.00313564
 ,-0.00000009,0.00086877,0.00106678,0.00000007,-0.07348238,-0.31547031,
 0.00000984,0.00129161,0.00097064,-0.00000004,-0.01065546,-0.01802502,0
 .00000119,-0.00047805,0.00075917,-0.00000003,0.00407025,-0.00073855,-0
 .00000033,0.08003811,0.33204338,0.00000038,0.00000078,-0.00260691,-0.0
 0000006,0.00000024,-0.00168229,0.00000054,0.00000313,0.00792937,0.0000
 0150,-0.00000036,0.01378929,0.00000431,0.00000935,-0.03676068,-0.00000
 076,0.,-0.00798791,-0.00000065,-0.00000231,0.00221220,-0.00000009,0.00
 000005,-0.00300819,0.00000070,-0.00000007,0.00220832,-0.00000594,-0.00
 001066,0.02431780,0.00123749,-0.00135784,-0.00000001,0.00017483,-0.000
 11859,0.00000004,0.00847635,0.02741287,-0.00000045,-0.00593808,0.00227
 188,0.00000029,0.00138081,0.00089824,-0.00000024,-0.07683672,-0.087597
 45,0.00000196,0.00003201,0.00001724,-0.00000011,0.00070327,0.00132629,
 -0.00000003,0.00024033,-0.00007566,-0.00000003,-0.00062723,-0.00062597
 ,0.00000010,0.08278401,0.00036023,0.00052371,0.,0.00015809,0.00009817,
 -0.00000005,-0.00762867,-0.01947608,0.00000046,0.00306928,-0.00077413,
 -0.00000025,-0.00155115,0.00102656,0.00000020,-0.08351014,-0.29039080,
 0.00000433,-0.00001971,0.00018876,0.00000010,-0.00068822,-0.00096209,0
 .00000005,-0.00017751,0.00026532,-0.00000003,0.00098826,0.00037831,-0.
 00000014,0.08921240,0.31443551,0.00000004,0.00000004,0.00025705,0.,0.,
 0.00005169,-0.00000103,-0.00000128,-0.00123502,0.00000031,-0.00000028,
 0.00127743,0.,-0.00000011,-0.00069280,0.00000213,0.00000446,-0.0461121
 3,-0.00000007,0.00000007,-0.00022463,-0.00000002,-0.00000004,0.0001996
 2,-0.00000004,-0.00000002,-0.00016694,0.00000009,0.00000002,0.00031558
 ,-0.00000221,-0.00000473,0.04330468,0.00098440,-0.00000417,0.00020237,
 -0.00048430,0.00028378,-0.00044944,-0.01925347,-0.00285373,-0.02053668
 ,-0.00099590,-0.00113203,0.00040422,-0.00066477,0.00339637,0.00085245,
 -0.12909222,-0.02467504,-0.12597082,-0.00023489,-0.00064542,0.00229878
 ,-0.00011942,0.00002247,0.00008994,-0.00002838,0.00009800,-0.00035277,
 0.00004858,0.00005864,-0.00108605,-0.00564857,-0.00027024,-0.00653317,
 0.14467107,-0.00098015,-0.00030713,-0.00027777,0.00060838,-0.00049597,
 0.00039542,0.01051190,0.00481939,0.01892523,0.00136116,-0.00011696,-0.
 00012275,0.00201544,-0.00247244,-0.00092152,-0.02280949,-0.05361099,-0
 .03426552,-0.00062971,0.00192417,-0.00168750,0.00005100,0.00009443,-0.
 00007658,-0.00009961,-0.00033837,0.00026836,0.00019501,0.00001412,0.00
 047657,-0.01578529,-0.00259614,-0.02432036,0.02306015,0.05318777,0.001
 17259,-0.00063844,0.00016720,0.00005734,0.00009110,0.00017257,0.001396
 24,0.00132072,0.00236615,-0.00182038,-0.00060130,0.00032530,0.00088364
 ,0.00013367,-0.00038046,-0.12512105,-0.03420708,-0.21501646,0.00011384
 ,-0.00021672,-0.00069116,0.00018496,0.00017507,-0.00006476,0.00005408,
 -0.00000522,0.00008392,0.00006212,0.00002685,0.00028236,0.00268142,0.0
 0051006,0.00148794,0.13569127,0.03751398,0.23250874,0.00098418,-0.0000
 0395,-0.00020219,-0.00048447,0.00028383,0.00044941,-0.01925113,-0.0028
 5392,0.02053933,-0.00099569,-0.00113207,-0.00040427,-0.00066527,0.0033
 9660,-0.00085218,-0.12906364,-0.02467187,0.12596075,-0.00023521,-0.000
 64552,-0.00229861,-0.00011943,0.00002241,-0.00008996,-0.00002837,0.000
 09803,0.00035273,0.00004881,0.00005865,0.00108602,-0.00564821,-0.00027
 028,0.00653395,0.01078633,0.00258600,-0.01534779,0.14464057,-0.0009800
 4,-0.00030665,0.00027777,0.00060843,-0.00049601,-0.00039543,0.01050963
 ,0.00481943,-0.01892680,0.00136128,-0.00011713,0.00012262,0.00201576,-
 0.00247250,0.00092123,-0.02280667,-0.05361184,0.03426933,-0.00062942,0
 .00192419,0.00168740,0.00005106,0.00009458,0.00007664,-0.00009962,-0.0
 0033845,-0.00026826,0.00019493,0.00001415,-0.00047652,-0.01578243,-0.0
 0259611,0.02432223,0.00258548,-0.00006471,-0.00414110,0.02305636,0.053
 18823,-0.00117273,0.00063824,0.00016735,-0.00005719,-0.00009113,0.0001
 7249,-0.00139385,-0.00132025,0.00236376,0.00182051,0.00060152,0.000325
 29,-0.00088336,-0.00013417,-0.00038010,0.12511152,0.03421068,-0.215046
 63,-0.00011407,0.00021691,-0.00069078,-0.00018492,-0.00017508,-0.00006
 476,-0.00005409,0.00000520,0.00008386,-0.00006207,-0.00002685,0.000282
 19,-0.00268073,-0.00051002,0.00148757,0.01534406,0.00414085,-0.0212480
 1,-0.13568135,-0.03751748,0.23254109,0.00176013,-0.00310272,0.00000017
 ,-0.00170853,-0.00273805,-0.00000020,-0.00415993,0.00205362,0.00000017
 ,0.00910577,0.02415338,-0.00000157,-0.00000040,-0.00041516,-0.00000023
 ,0.00082703,0.00110912,0.00000002,-0.00384113,0.00350710,0.00000136,-0
 .07597072,-0.07511367,0.00000553,-0.00265662,-0.03103070,0.00000296,0.
 00012594,-0.00010593,-0.00000001,-0.00031165,0.00028033,0.00000002,0.0
 0002662,-0.00006104,-0.00002593,0.00002659,-0.00006101,0.00002592,0.07
 626409,0.00045986,0.00336661,-0.00000018,-0.00066124,-0.00021309,-0.00
 000007,0.00410415,-0.00055812,-0.00000012,-0.01063794,-0.01808634,0.00
 000139,-0.00029866,0.00079403,-0.00000011,-0.00076524,-0.00081834,0.00
 000006,0.00069385,0.00116171,0.00000041,-0.07449823,-0.31887822,0.0000
 1855,0.00058463,-0.00133188,0.00000020,-0.00011022,-0.00005486,0.00000
 001,0.00027243,-0.00019497,-0.00000001,0.00002314,0.00002308,0.0000248
 8,0.00002314,0.00002308,-0.00002488,0.08122188,0.33403332,-0.00000006,
 -0.00000008,-0.00143353,0.00000033,0.00000036,-0.00272584,0.00000023,-
 0.00000022,0.00221528,0.00000033,-0.00000073,0.00203844,-0.00000019,0.
 ,-0.00295376,0.00000007,0.00000005,0.00051508,0.00000118,0.00000035,0.
 01466472,0.00000526,0.00001746,-0.03701610,0.00000101,0.00000337,0.007
 17724,0.00000001,0.00000001,0.00003004,0.,0.,-0.00000482,0.00005700,-0
 .00003361,-0.00000320,-0.00005700,0.00003360,-0.00000320,-0.00000766,-
 0.00001990,0.02457330,-0.00275116,0.00098726,-0.00000039,0.00099886,0.
 00167005,-0.00000017,-0.00030245,-0.00013119,-0.00000031,-0.00050604,-
 0.00433294,0.00000158,-0.00016324,-0.00192023,0.00000021,0.00009251,0.
 00013213,0.,0.00724290,-0.00757598,0.00000003,-0.01579692,0.02124162,0
 .00000082,-0.21736647,0.14083782,0.00000463,0.00041194,-0.00029285,0.0
 0000001,-0.00001863,0.00004733,0.,0.00000493,-0.00002374,0.00001765,0.
 00000493,-0.00002373,-0.00001765,0.00051282,-0.00041157,-0.00000050,0.
 22763601,-0.00101110,0.00090815,-0.00000032,-0.00208899,0.00421160,-0.
 00000021,-0.00052705,0.00086470,-0.00000027,-0.00178773,-0.00225467,0.
 00000142,-0.00361406,-0.00462562,0.00000065,0.00029277,0.00016634,0.,0
 .02729659,-0.01556279,-0.00000100,-0.01049556,0.01217586,0.00000095,0.
 14061053,-0.17823313,-0.00000188,0.00118868,-0.00096361,-0.00000006,-0
 .00006813,0.00007399,0.,0.00005259,-0.00006026,0.00001353,0.00005259,-
 0.00006024,-0.00001354,0.00030285,0.00073398,-0.00000066,-0.15020397,0
 .18262570,0.00000083,-0.00000051,-0.00278191,0.00000020,-0.00000037,-0
 .00152058,-0.00000001,-0.00000022,-0.00300347,0.00000090,0.00000154,0.
 01464931,0.00000059,0.00000058,0.00206156,-0.00000003,0.,-0.00002691,-
 0.00000248,0.00000183,0.00235603,0.00000210,-0.00000253,0.00746471,0.0
 0000443,-0.00000154,-0.03817020,-0.00000006,0.00000010,0.00067883,0.00
 000001,0.,0.00005478,-0.00001116,-0.00001478,0.00000986,0.00001116,0.0
 0001478,0.00000987,-0.00000057,-0.00000023,-0.00707364,-0.00000594,0.0
 0000137,0.02529176\\0.00006793,0.00002775,0.00000426,-0.00003744,-0.00
 001886,-0.00000568,-0.00003709,-0.00000093,0.00000123,-0.00003466,-0.0
 0001419,-0.00001056,0.00006780,-0.00000377,-0.00000389,-0.00000543,-0.
 00002282,0.00000138,-0.00001431,0.00002794,0.00001626,-0.00002333,-0.0
 0000727,0.00000190,0.00001356,-0.00000597,-0.00000413,-0.00000936,0.00
 000727,-0.00000077,0.00000362,0.00000530,-0.00000012,0.00000066,0.0000
 0045,0.00000075,0.00000006,0.00000096,-0.00000079,-0.00000822,-0.00000
 523,0.00000096,0.00001622,0.00000938,-0.00000080\\\@


 "THE ACADEMIC HIERARCHY"


 THE PRESIDENT:
   LEAPS TALL BUILDINGS IN A SINGLE BOUND,
     IS MORE POWERFUL THAN A LOCOMOTIVE,
       IS FASTER THAN A SPEEDING BULLET,
         WALKS ON WATER,
           GIVES POLICY TO GOD.

 THE VICE PRESIDENT FOR ACADEMIC AFFAIRS:
   LEAPS SHORT BUILDINGS IN A SINGLE BOUND,
     IS MORE POWERFUL THAN A SWITCH ENGINE,
       IS JUST AS FAST AS A SPEEDING BULLET,
         WALKS ON WATER IF SEA IS CALM,
           TALKS WITH GOD.

 PROFESSOR:
   LEAPS SHORT BUILDINGS WITH A RUNNING START AND FAVORABLE WINDS,
     IS ALMOST AS POWERFUL AS A SWITCH ENGINE,
       CAN FIRE A SPEEDING BULLET,
         WALKS ON WATER IN AN INDOOR SWIMMING POOL,
          TALKS WITH GOD IF SPECIAL REQUEST IS APPROVED.

 ASSOCIATE PROFESSOR:
   BARELY CLEARS A QUONSET HUT,
     LOSES TUG OF WAR WITH LOCOMOTIVE,
       MISFIRES FREQUENTLY,
         SWIMS WELL,
           IS OCCASIONALLY ADDRESSED BY GOD.

 ASSISTANT PROFESSOR:
   MAKES HIGH MARKS ON WALLS WHEN TRYING TO LEAP TALL BUILDINGS,
     IS RUN OVER BY LOCOMOTIVES,
       CAN SOMETIMES HANDLE A GUN WITHOUT INFLICTING SELF INJURY,
         DOG PADDLES,
           TALKS TO ANIMALS.

 GRADUATE STUDENT:
   RUNS INTO BUILDINGS,
     RECOGNIZES LOCOMOTIVES TWO OUT OF THREE TIMES,
       IS NOT ISSUED AMMUNITION,
         CAN STAY AFLOAT WITH A LIFE JACKET,
           TALKS TO WALLS.

 UNDERGRADUATE AND WORK STUDY STUDENT:
   FALLS OVER DOORSTEP WHEN TRYING TO ENTER BUILDINGS,
     SAYS, "LOOK AT THE CHOO-CHOO,"
       WETS HIMSELF WITH A WATER PISTOL,
        PLAYS IN MUD PUDDLES,
          MUMBLES TO HIMSELF.

 DEPARTMENT SECRETARY:
   LIFTS TALL BUILDINGS AND WALKS UNDER THEM,
     KICKS LOCOMOTIVES OFF THE TRACKS,
       CATCHES SPEEDING BULLETS IN HER TEETH AND EATS THEM,
         FREEZES WATER WITH A SINGLE GLANCE,
           IS GOD.
 Job cpu time:       0 days  1 hours 23 minutes 28.3 seconds.
 Elapsed time:       0 days  0 hours  5 minutes 14.9 seconds.
 File lengths (MBytes):  RWF=     88 Int=      0 D2E=      0 Chk=      6 Scr=      1
 Normal termination of Gaussian 16 at Sat Sep 27 21:35:29 2025.
