 Entering Gaussian System, Link 0=g16
 Input=TQUE0077.gjf
 Output=TQUE0077.log
 Initial command:
 /usr/local/g16/l1.exe "/dados_01/scratch/Gau-2757705.inp" -scrdir="/dados_01/scratch/"
 Entering Link 1 = /usr/local/g16/l1.exe PID=   2757706.
  
 Copyright (c) 1988-2017, Gaussian, Inc.  All Rights Reserved.
  
 This is part of the Gaussian(R) 16 program.  It is based on
 the Gaussian(R) 09 system (copyright 2009, Gaussian, Inc.),
 the Gaussian(R) 03 system (copyright 2003, Gaussian, Inc.),
 the Gaussian(R) 98 system (copyright 1998, Gaussian, Inc.),
 the Gaussian(R) 94 system (copyright 1995, Gaussian, Inc.),
 the Gaussian 92(TM) system (copyright 1992, Gaussian, Inc.),
 the Gaussian 90(TM) system (copyright 1990, Gaussian, Inc.),
 the Gaussian 88(TM) system (copyright 1988, Gaussian, Inc.),
 the Gaussian 86(TM) system (copyright 1986, Carnegie Mellon
 University), and the Gaussian 82(TM) system (copyright 1983,
 Carnegie Mellon University). Gaussian is a federally registered
 trademark of Gaussian, Inc.
  
 This software contains proprietary and confidential information,
 including trade secrets, belonging to Gaussian, Inc.
  
 This software is provided under written license and may be
 used, copied, transmitted, or stored only in accord with that
 written license.
  
 The following legend is applicable only to US Government
 contracts under FAR:
  
                    RESTRICTED RIGHTS LEGEND
  
 Use, reproduction and disclosure by the US Government is
 subject to restrictions as set forth in subparagraphs (a)
 and (c) of the Commercial Computer Software - Restricted
 Rights clause in FAR 52.227-19.
  
 Gaussian, Inc.
 340 Quinnipiac St., Bldg. 40, Wallingford CT 06492
  
  
 ---------------------------------------------------------------
 Warning -- This program may not be used in any manner that
 competes with the business of Gaussian, Inc. or will provide
 assistance to any competitor of Gaussian, Inc.  The licensee
 of this program is prohibited from giving any competitor of
 Gaussian, Inc. access to this program.  By using this program,
 the user acknowledges that Gaussian, Inc. is engaged in the
 business of creating and licensing software in the field of
 computational chemistry and represents and warrants to the
 licensee that it is not a competitor of Gaussian, Inc. and that
 it will not use this program in any manner prohibited above.
 ---------------------------------------------------------------
  

 Cite this work as:
 Gaussian 16, Revision B.01,
 M. J. Frisch, G. W. Trucks, H. B. Schlegel, G. E. Scuseria, 
 M. A. Robb, J. R. Cheeseman, G. Scalmani, V. Barone, 
 G. A. Petersson, H. Nakatsuji, X. Li, M. Caricato, A. V. Marenich, 
 J. Bloino, B. G. Janesko, R. Gomperts, B. Mennucci, H. P. Hratchian, 
 J. V. Ortiz, A. F. Izmaylov, J. L. Sonnenberg, D. Williams-Young, 
 F. Ding, F. Lipparini, F. Egidi, J. Goings, B. Peng, A. Petrone, 
 T. Henderson, D. Ranasinghe, V. G. Zakrzewski, J. Gao, N. Rega, 
 G. Zheng, W. Liang, M. Hada, M. Ehara, K. Toyota, R. Fukuda, 
 J. Hasegawa, M. Ishida, T. Nakajima, Y. Honda, O. Kitao, H. Nakai, 
 T. Vreven, K. Throssell, J. A. Montgomery, Jr., J. E. Peralta, 
 F. Ogliaro, M. J. Bearpark, J. J. Heyd, E. N. Brothers, K. N. Kudin, 
 V. N. Staroverov, T. A. Keith, R. Kobayashi, J. Normand, 
 K. Raghavachari, A. P. Rendell, J. C. Burant, S. S. Iyengar, 
 J. Tomasi, M. Cossi, J. M. Millam, M. Klene, C. Adamo, R. Cammi, 
 J. W. Ochterski, R. L. Martin, K. Morokuma, O. Farkas, 
 J. B. Foresman, and D. J. Fox, Gaussian, Inc., Wallingford CT, 2016.
 
 ******************************************
 Gaussian 16:  ES64L-G16RevB.01 20-Dec-2017
                15-Oct-2025 
 ******************************************
 %nprocs=16
 Will use up to   16 processors via shared memory.
 %mem=40GB
 %chk=TQUE0077.chk
 ----------------------------------------------------------------------
 # opt freq=noraman M08HX/6-311++G** scf=xqc Empiricaldispersion=pfd In
 t(Grid=ultraFine)
 ----------------------------------------------------------------------
 1/18=20,19=15,26=4,38=1/1,3;
 2/9=110,12=2,17=6,18=5,40=1/2;
 3/5=4,6=6,7=1111,11=2,25=1,30=1,71=1,74=-74,75=-5,124=11/1,2,3;
 4//1;
 5/5=2,8=3,13=1,38=5/2,8;
 6/7=2,8=2,9=2,10=2,28=1/1;
 7//1,2,3,16;
 1/18=20,19=15,26=4/3(2);
 2/9=110/2;
 99//99;
 2/9=110/2;
 3/5=4,6=6,7=1111,11=2,25=1,30=1,71=1,74=-74,75=-5,124=11/1,2,3;
 4/5=5,16=3,69=1/1;
 5/5=2,8=3,13=1,38=5/2,8;
 7//1,2,3,16;
 1/18=20,19=15,26=4/3(-5);
 2/9=110/2;
 6/7=2,8=2,9=2,10=2,19=2,28=1/1;
 99/9=1/99;
 --------
 TQUE0077
 --------
 Symbolic Z-matrix:
 Charge =  0 Multiplicity = 1
 O                     0.8838    2.3753    0.0022 
 O                    -2.0338   -2.0779   -0.0011 
 C                     2.3599   -0.047     0.0001 
 C                     0.8635    0.0003    0.0003 
 C                     2.8687   -0.7468    1.2572 
 C                     2.8815   -0.7402   -1.2564 
 C                     0.2237    1.3409    0.001 
 C                     0.1033   -1.1003   -0.0001 
 C                    -2.0136    0.297    -0.0006 
 C                    -1.3738   -1.0434   -0.0007 
 C                    -1.2533    1.3977    0. 
 C                    -3.5099    0.3446   -0.0019 
 H                     2.7813    0.9649    0.0048 
 H                     2.5854   -1.8046    1.291 
 H                     2.4843   -0.2632    2.1624 
 H                     3.9628   -0.7026    1.3006 
 H                     2.5061   -0.2501   -2.1618 
 H                     2.5955   -1.797    -1.2992 
 H                     3.976    -0.6977   -1.2885 
 H                     0.5396   -2.0939   -0.0011 
 H                    -1.6991    2.3874   -0.0001 
 H                    -3.9092   -0.1552    0.8867 
 H                    -3.9078   -0.1552   -0.8912 
 H                    -3.8873    1.3727   -0.0022 
 

 GradGradGradGradGradGradGradGradGradGradGradGradGradGradGradGradGradGrad
 Berny optimization.
 Initialization pass.
                           ----------------------------
                           !    Initial Parameters    !
                           ! (Angstroms and Degrees)  !
 --------------------------                            --------------------------
 ! Name  Definition              Value          Derivative Info.                !
 --------------------------------------------------------------------------------
 ! R1    R(1,7)                  1.2271         estimate D2E/DX2                !
 ! R2    R(2,10)                 1.2271         estimate D2E/DX2                !
 ! R3    R(3,4)                  1.4971         estimate D2E/DX2                !
 ! R4    R(3,5)                  1.5261         estimate D2E/DX2                !
 ! R5    R(3,6)                  1.5269         estimate D2E/DX2                !
 ! R6    R(3,13)                 1.0961         estimate D2E/DX2                !
 ! R7    R(4,7)                  1.4854         estimate D2E/DX2                !
 ! R8    R(4,8)                  1.3376         estimate D2E/DX2                !
 ! R9    R(5,14)                 1.0956         estimate D2E/DX2                !
 ! R10   R(5,15)                 1.0959         estimate D2E/DX2                !
 ! R11   R(5,16)                 1.0959         estimate D2E/DX2                !
 ! R12   R(6,17)                 1.0958         estimate D2E/DX2                !
 ! R13   R(6,18)                 1.0957         estimate D2E/DX2                !
 ! R14   R(6,19)                 1.0958         estimate D2E/DX2                !
 ! R15   R(7,11)                 1.4781         estimate D2E/DX2                !
 ! R16   R(8,10)                 1.4782         estimate D2E/DX2                !
 ! R17   R(8,20)                 1.0852         estimate D2E/DX2                !
 ! R18   R(9,10)                 1.4853         estimate D2E/DX2                !
 ! R19   R(9,11)                 1.3378         estimate D2E/DX2                !
 ! R20   R(9,12)                 1.4971         estimate D2E/DX2                !
 ! R21   R(11,21)                1.0855         estimate D2E/DX2                !
 ! R22   R(12,22)                1.0949         estimate D2E/DX2                !
 ! R23   R(12,23)                1.095          estimate D2E/DX2                !
 ! R24   R(12,24)                1.0952         estimate D2E/DX2                !
 ! A1    A(4,3,5)              110.3416         estimate D2E/DX2                !
 ! A2    A(4,3,6)              110.8482         estimate D2E/DX2                !
 ! A3    A(4,3,13)             110.7983         estimate D2E/DX2                !
 ! A4    A(5,3,6)              110.8422         estimate D2E/DX2                !
 ! A5    A(5,3,13)             106.9545         estimate D2E/DX2                !
 ! A6    A(6,3,13)             106.936          estimate D2E/DX2                !
 ! A7    A(3,4,7)              117.3232         estimate D2E/DX2                !
 ! A8    A(3,4,8)              122.8229         estimate D2E/DX2                !
 ! A9    A(7,4,8)              119.8539         estimate D2E/DX2                !
 ! A10   A(3,5,14)             112.4541         estimate D2E/DX2                !
 ! A11   A(3,5,15)             111.1679         estimate D2E/DX2                !
 ! A12   A(3,5,16)             110.3039         estimate D2E/DX2                !
 ! A13   A(14,5,15)            108.0514         estimate D2E/DX2                !
 ! A14   A(14,5,16)            107.2107         estimate D2E/DX2                !
 ! A15   A(15,5,16)            107.4388         estimate D2E/DX2                !
 ! A16   A(3,6,17)             111.0902         estimate D2E/DX2                !
 ! A17   A(3,6,18)             112.3877         estimate D2E/DX2                !
 ! A18   A(3,6,19)             110.347          estimate D2E/DX2                !
 ! A19   A(17,6,18)            108.04           estimate D2E/DX2                !
 ! A20   A(17,6,19)            107.4945         estimate D2E/DX2                !
 ! A21   A(18,6,19)            107.2768         estimate D2E/DX2                !
 ! A22   A(1,7,4)              121.9434         estimate D2E/DX2                !
 ! A23   A(1,7,11)             120.3416         estimate D2E/DX2                !
 ! A24   A(4,7,11)             117.715          estimate D2E/DX2                !
 ! A25   A(4,8,10)             122.4274         estimate D2E/DX2                !
 ! A26   A(4,8,20)             121.6598         estimate D2E/DX2                !
 ! A27   A(10,8,20)            115.9128         estimate D2E/DX2                !
 ! A28   A(10,9,11)            119.8494         estimate D2E/DX2                !
 ! A29   A(10,9,12)            117.3381         estimate D2E/DX2                !
 ! A30   A(11,9,12)            122.8124         estimate D2E/DX2                !
 ! A31   A(2,10,8)             120.3314         estimate D2E/DX2                !
 ! A32   A(2,10,9)             121.9465         estimate D2E/DX2                !
 ! A33   A(8,10,9)             117.7221         estimate D2E/DX2                !
 ! A34   A(7,11,9)             122.4322         estimate D2E/DX2                !
 ! A35   A(7,11,21)            116.451          estimate D2E/DX2                !
 ! A36   A(9,11,21)            121.1168         estimate D2E/DX2                !
 ! A37   A(9,12,22)            110.4433         estimate D2E/DX2                !
 ! A38   A(9,12,23)            110.4503         estimate D2E/DX2                !
 ! A39   A(9,12,24)            111.9795         estimate D2E/DX2                !
 ! A40   A(22,12,23)           108.5569         estimate D2E/DX2                !
 ! A41   A(22,12,24)           107.6417         estimate D2E/DX2                !
 ! A42   A(23,12,24)           107.6405         estimate D2E/DX2                !
 ! D1    D(5,3,4,7)            118.5013         estimate D2E/DX2                !
 ! D2    D(5,3,4,8)            -61.4976         estimate D2E/DX2                !
 ! D3    D(6,3,4,7)           -118.3214         estimate D2E/DX2                !
 ! D4    D(6,3,4,8)             61.6797         estimate D2E/DX2                !
 ! D5    D(13,3,4,7)             0.2393         estimate D2E/DX2                !
 ! D6    D(13,3,4,8)          -179.7596         estimate D2E/DX2                !
 ! D7    D(4,3,5,14)            65.4006         estimate D2E/DX2                !
 ! D8    D(4,3,5,15)           -55.9037         estimate D2E/DX2                !
 ! D9    D(4,3,5,16)          -174.9773         estimate D2E/DX2                !
 ! D10   D(6,3,5,14)           -57.7801         estimate D2E/DX2                !
 ! D11   D(6,3,5,15)          -179.0844         estimate D2E/DX2                !
 ! D12   D(6,3,5,16)            61.8419         estimate D2E/DX2                !
 ! D13   D(13,3,5,14)         -174.007          estimate D2E/DX2                !
 ! D14   D(13,3,5,15)           64.6887         estimate D2E/DX2                !
 ! D15   D(13,3,5,16)          -54.3849         estimate D2E/DX2                !
 ! D16   D(4,3,6,17)            56.2451         estimate D2E/DX2                !
 ! D17   D(4,3,6,18)           -64.942          estimate D2E/DX2                !
 ! D18   D(4,3,6,19)           175.3665         estimate D2E/DX2                !
 ! D19   D(5,3,6,17)           179.1331         estimate D2E/DX2                !
 ! D20   D(5,3,6,18)            57.946          estimate D2E/DX2                !
 ! D21   D(5,3,6,19)           -61.7455         estimate D2E/DX2                !
 ! D22   D(13,3,6,17)          -64.6285         estimate D2E/DX2                !
 ! D23   D(13,3,6,18)          174.1843         estimate D2E/DX2                !
 ! D24   D(13,3,6,19)           54.4928         estimate D2E/DX2                !
 ! D25   D(3,4,7,1)             -0.0439         estimate D2E/DX2                !
 ! D26   D(3,4,7,11)           179.9474         estimate D2E/DX2                !
 ! D27   D(8,4,7,1)            179.9551         estimate D2E/DX2                !
 ! D28   D(8,4,7,11)            -0.0537         estimate D2E/DX2                !
 ! D29   D(3,4,8,10)          -179.9632         estimate D2E/DX2                !
 ! D30   D(3,4,8,20)            -0.0313         estimate D2E/DX2                !
 ! D31   D(7,4,8,10)             0.038          estimate D2E/DX2                !
 ! D32   D(7,4,8,20)           179.9698         estimate D2E/DX2                !
 ! D33   D(1,7,11,9)          -179.9636         estimate D2E/DX2                !
 ! D34   D(1,7,11,21)            0.0288         estimate D2E/DX2                !
 ! D35   D(4,7,11,9)             0.045          estimate D2E/DX2                !
 ! D36   D(4,7,11,21)         -179.9625         estimate D2E/DX2                !
 ! D37   D(4,8,10,2)           179.9975         estimate D2E/DX2                !
 ! D38   D(4,8,10,9)            -0.0111         estimate D2E/DX2                !
 ! D39   D(20,8,10,2)            0.062          estimate D2E/DX2                !
 ! D40   D(20,8,10,9)         -179.9466         estimate D2E/DX2                !
 ! D41   D(11,9,10,2)          179.9922         estimate D2E/DX2                !
 ! D42   D(11,9,10,8)            0.0009         estimate D2E/DX2                !
 ! D43   D(12,9,10,2)           -0.0384         estimate D2E/DX2                !
 ! D44   D(12,9,10,8)          179.9703         estimate D2E/DX2                !
 ! D45   D(10,9,11,7)           -0.0193         estimate D2E/DX2                !
 ! D46   D(10,9,11,21)         179.9886         estimate D2E/DX2                !
 ! D47   D(12,9,11,7)         -179.987          estimate D2E/DX2                !
 ! D48   D(12,9,11,21)           0.021          estimate D2E/DX2                !
 ! D49   D(10,9,12,22)          60.0776         estimate D2E/DX2                !
 ! D50   D(10,9,12,23)         -60.0206         estimate D2E/DX2                !
 ! D51   D(10,9,12,24)        -179.9731         estimate D2E/DX2                !
 ! D52   D(11,9,12,22)        -119.954          estimate D2E/DX2                !
 ! D53   D(11,9,12,23)         119.9479         estimate D2E/DX2                !
 ! D54   D(11,9,12,24)          -0.0047         estimate D2E/DX2                !
 --------------------------------------------------------------------------------
 Trust Radius=3.00D-01 FncErr=1.00D-07 GrdErr=1.00D-06 EigMax=2.50D+02 EigMin=1.00D-04
 Number of steps in this run=    130 maximum allowed number of steps=    144.
 GradGradGradGradGradGradGradGradGradGradGradGradGradGradGradGradGradGrad

                          Input orientation:                          
 ---------------------------------------------------------------------
 Center     Atomic      Atomic             Coordinates (Angstroms)
 Number     Number       Type             X           Y           Z
 ---------------------------------------------------------------------
      1          8           0        0.883800    2.375300    0.002200
      2          8           0       -2.033800   -2.077900   -0.001100
      3          6           0        2.359900   -0.047000    0.000100
      4          6           0        0.863500    0.000300    0.000300
      5          6           0        2.868700   -0.746800    1.257200
      6          6           0        2.881500   -0.740200   -1.256400
      7          6           0        0.223700    1.340900    0.001000
      8          6           0        0.103300   -1.100300   -0.000100
      9          6           0       -2.013600    0.297000   -0.000600
     10          6           0       -1.373800   -1.043400   -0.000700
     11          6           0       -1.253300    1.397700    0.000000
     12          6           0       -3.509900    0.344600   -0.001900
     13          1           0        2.781300    0.964900    0.004800
     14          1           0        2.585400   -1.804600    1.291000
     15          1           0        2.484300   -0.263200    2.162400
     16          1           0        3.962800   -0.702600    1.300600
     17          1           0        2.506100   -0.250100   -2.161800
     18          1           0        2.595500   -1.797000   -1.299200
     19          1           0        3.976000   -0.697700   -1.288500
     20          1           0        0.539600   -2.093900   -0.001100
     21          1           0       -1.699100    2.387400   -0.000100
     22          1           0       -3.909200   -0.155200    0.886700
     23          1           0       -3.907800   -0.155200   -0.891200
     24          1           0       -3.887300    1.372700   -0.002200
 ---------------------------------------------------------------------
                    Distance matrix (angstroms):
                    1          2          3          4          5
     1  O    0.000000
     2  O    5.323851   0.000000
     3  C    2.836620   4.840367   0.000000
     4  C    2.375088   3.565567   1.497147   0.000000
     5  C    3.906707   5.233512   1.526073   2.481690   0.000000
     6  C    3.909120   5.246465   1.526887   2.489972   2.513641
     7  C    1.227077   4.096890   2.547473   1.485447   3.596186
     8  C    3.562160   2.350085   2.490318   1.337619   3.058301
     9  C    3.565707   2.374986   4.387008   2.892358   5.148634
    10  C    4.096862   1.227107   3.864367   2.468769   4.434985
    11  C    2.350086   3.562159   3.891320   2.536448   4.813555
    12  C    4.840285   2.836790   5.882849   4.386932   6.592649
    13  H    2.364263   5.695951   1.096149   2.146725   2.122749
    14  H    4.693401   4.804292   2.192357   2.808649   1.095601
    15  H    3.766928   5.327954   2.176639   2.714977   1.095910
    16  H    4.543077   6.288488   2.165733   3.433731   1.095852
    17  H    3.769281   5.349782   2.176335   2.726813   3.473867
    18  H    4.693788   4.816055   2.192302   2.814038   2.777182
    19  H    4.546530   6.299210   2.166952   3.440329   2.776529
    20  H    4.482436   2.573450   2.739214   2.119100   2.970304
    21  H    2.582929   4.477826   4.733052   3.502166   5.680564
    22  H    5.491686   2.828796   6.332407   4.856805   6.813750
    23  H    5.491905   2.828591   6.331681   4.856362   7.133482
    24  H    4.875307   3.916900   6.406486   4.945057   7.191794
                    6          7          8          9         10
     6  C    0.000000
     7  C    3.602212   0.000000
     8  C    3.070237   2.444168   0.000000
     9  C    5.158955   2.468854   2.536477   0.000000
    10  C    4.447054   2.869999   1.478196   1.485266   0.000000
    11  C    4.821382   1.478092   2.842599   1.337758   2.444072
    12  C    6.603072   3.864245   3.891395   1.497057   2.547444
    13  H    2.123213   2.585093   3.381828   4.841197   4.614992
    14  H    2.776665   4.139553   2.885099   5.218789   4.233578
    15  H    3.474693   3.514982   3.323598   5.022300   4.491397
    16  H    2.776486   4.454854   4.092154   6.197554   5.503528
    17  H    1.095843   3.523966   3.342041   5.039622   4.511463
    18  H    1.095652   4.142749   2.895533   5.226375   4.243743
    19  H    1.095795   4.460768   4.101203   6.206724   5.513465
    20  H    2.982076   3.449297   1.085173   3.497890   2.182808
    21  H    5.687009   2.189138   3.925901   2.113926   3.446188
    22  H    7.144838   4.483709   4.216608   2.141281   2.829246
    23  H    6.824236   4.483707   4.216183   2.141412   2.828965
    24  H    7.200973   4.111124   4.694744   2.160529   3.486434
                   11         12         13         14         15
    11  C    0.000000
    12  C    2.490234   0.000000
    13  H    4.057750   6.321710   0.000000
    14  H    5.163044   6.591156   3.059872   0.000000
    15  H    4.626469   6.401879   2.500335   1.773548   0.000000
    16  H    5.771527   7.657309   2.419834   1.764009   1.766843
    17  H    4.639150   6.419587   2.499223   3.787425   4.324275
    18  H    5.167910   6.598890   3.059907   2.590231   3.787820
    19  H    5.778972   7.666839   2.421605   3.132541   3.784530
    20  H    3.925017   4.727022   3.792296   2.436907   3.437158
    21  H    1.085469   2.729841   4.700799   6.131618   5.403973
    22  H    3.201803   1.094920   6.840699   6.712958   6.520423
    23  H    3.201891   1.094979   6.841162   7.045861   7.084849
    24  H    2.634120   1.095181   6.681061   7.325534   6.925240
                   16         17         18         19         20
    16  H    0.000000
    17  H    3.783510   0.000000
    18  H    3.134674   1.773407   0.000000
    19  H    2.589138   1.767372   1.764754   0.000000
    20  H    3.917708   3.454757   2.449477   3.926273   0.000000
    21  H    6.580048   5.414154   6.135182   6.586697   5.009374
    22  H    7.901857   7.103410   7.055834   8.197694   4.933413
    23  H    8.188405   6.539231   6.719738   7.912424   4.932566
    24  H    8.223638   6.940671   7.331842   8.232412   5.622700
                   21         22         23         24
    21  H    0.000000
    22  H    3.483643   0.000000
    23  H    3.483853   1.777901   0.000000
    24  H    2.412020   1.767796   1.767829   0.000000
 Stoichiometry    C10H12O2
 Framework group  C1[X(C10H12O2)]
 Deg. of freedom    66
 Full point group                 C1      NOp   1
 Largest Abelian subgroup         C1      NOp   1
 Largest concise Abelian subgroup C1      NOp   1
                         Standard orientation:                         
 ---------------------------------------------------------------------
 Center     Atomic      Atomic             Coordinates (Angstroms)
 Number     Number       Type             X           Y           Z
 ---------------------------------------------------------------------
      1          8           0        0.727814    2.433881    0.002159
      2          8           0       -2.020472   -2.125757   -0.001141
      3          6           0        2.293851    0.068731    0.000059
      4          6           0        0.796730    0.059795    0.000259
      5          6           0        2.828575   -0.611466    1.257159
      6          6           0        2.841118   -0.604390   -1.256441
      7          6           0        0.107030    1.375419    0.000959
      8          6           0        0.078403   -1.068581   -0.000141
      9          6           0       -2.089484    0.248226   -0.000641
     10          6           0       -1.399792   -1.067199   -0.000741
     11          6           0       -1.371061    1.376705   -0.000041
     12          6           0       -3.586516    0.239593   -0.001941
     13          1           0        2.676948    1.095744    0.004759
     14          1           0        2.585204   -1.679160    1.290959
     15          1           0        2.426283   -0.142645    2.162359
     16          1           0        3.920243   -0.526204    1.300559
     17          1           0        2.447576   -0.128735   -2.161841
     18          1           0        2.595012   -1.671186   -1.299241
     19          1           0        3.933250   -0.520812   -1.288541
     20          1           0        0.551714   -2.045093   -0.001141
     21          1           0       -1.853718    2.348963   -0.000141
     22          1           0       -3.966762   -0.274851    0.886659
     23          1           0       -3.965363   -0.274799   -0.891241
     24          1           0       -4.002263    1.252793   -0.002241
 ---------------------------------------------------------------------
 Rotational constants (GHZ):           1.5595924           0.6632176           0.5185026
 Standard basis: 6-311++G(d,p) (5D, 7F)
 There are   360 symmetry adapted cartesian basis functions of A   symmetry.
 There are   348 symmetry adapted basis functions of A   symmetry.
   348 basis functions,   540 primitive gaussians,   360 cartesian basis functions
    44 alpha electrons       44 beta electrons
       nuclear repulsion energy       680.4072790863 Hartrees.
 NAtoms=   24 NActive=   24 NUniq=   24 SFac= 1.00D+00 NAtFMM=   60 NAOKFM=F Big=F
 Integral buffers will be    131072 words long.
 Raffenetti 2 integral format.
 Two-electron integral symmetry is turned on.
 R6APFD:  NTU= -4 IXU= 1 FactS= 1.050
 Nuclear repulsion after empirical dispersion term =      680.3898802596 Hartrees.
 One-electron integrals computed using PRISM.
 NBasis=   348 RedAO= T EigKep=  1.33D-06  NBF=   348
 NBsUse=   347 1.00D-06 EigRej=  6.60D-07 NBFU=   347
 ExpMin= 3.60D-02 ExpMax= 8.59D+03 ExpMxC= 1.30D+03 IAcc=3 IRadAn=         5 AccDes= 0.00D+00
 Harris functional with IExCor= 1009 and IRadAn=       5 diagonalized for initial guess.
 HarFok:  IExCor= 1009 AccDes= 0.00D+00 IRadAn=         5 IDoV= 1 UseB2=F ITyADJ=14
 ICtDFT=  3500011 ScaDFX=  1.000000  1.000000  1.000000  1.000000
 FoFCou: FMM=F IPFlag=           0 FMFlag=      100000 FMFlg1=           0
         NFxFlg=           0 DoJE=T BraDBF=F KetDBF=T FulRan=T
         wScrn=  0.000000 ICntrl=       500 IOpCl=  0 I1Cent=   200000004 NGrid=           0
         NMat0=    1 NMatS0=      1 NMatT0=    0 NMatD0=    1 NMtDS0=    0 NMtDT0=    0
 Petite list used in FoFCou.
 Requested convergence on RMS density matrix=1.00D-08 within  32 cycles.
 Requested convergence on MAX density matrix=1.00D-06.
 Requested convergence on             energy=1.00D-06.
 No special actions if energy rises.
 SCF Done:  E(RM08HX) =  -538.714148394     A.U. after   15 cycles
            NFock= 15  Conv=0.84D-08     -V/T= 2.0046
 QCSCF skips out because SCF is already converged.

 **********************************************************************

            Population analysis using the SCF Density.

 **********************************************************************

 Orbital symmetries:
       Occupied  (A) (A) (A) (A) (A) (A) (A) (A) (A) (A) (A) (A)
                 (A) (A) (A) (A) (A) (A) (A) (A) (A) (A) (A) (A)
                 (A) (A) (A) (A) (A) (A) (A) (A) (A) (A) (A) (A)
                 (A) (A) (A) (A) (A) (A) (A) (A)
       Virtual   (A) (A) (A) (A) (A) (A) (A) (A) (A) (A) (A) (A)
                 (A) (A) (A) (A) (A) (A) (A) (A) (A) (A) (A) (A)
                 (A) (A) (A) (A) (A) (A) (A) (A) (A) (A) (A) (A)
                 (A) (A) (A) (A) (A) (A) (A) (A) (A) (A) (A) (A)
                 (A) (A) (A) (A) (A) (A) (A) (A) (A) (A) (A) (A)
                 (A) (A) (A) (A) (A) (A) (A) (A) (A) (A) (A) (A)
                 (A) (A) (A) (A) (A) (A) (A) (A) (A) (A) (A) (A)
                 (A) (A) (A) (A) (A) (A) (A) (A) (A) (A) (A) (A)
                 (A) (A) (A) (A) (A) (A) (A) (A) (A) (A) (A) (A)
                 (A) (A) (A) (A) (A) (A) (A) (A) (A) (A) (A) (A)
                 (A) (A) (A) (A) (A) (A) (A) (A) (A) (A) (A) (A)
                 (A) (A) (A) (A) (A) (A) (A) (A) (A) (A) (A) (A)
                 (A) (A) (A) (A) (A) (A) (A) (A) (A) (A) (A) (A)
                 (A) (A) (A) (A) (A) (A) (A) (A) (A) (A) (A) (A)
                 (A) (A) (A) (A) (A) (A) (A) (A) (A) (A) (A) (A)
                 (A) (A) (A) (A) (A) (A) (A) (A) (A) (A) (A) (A)
                 (A) (A) (A) (A) (A) (A) (A) (A) (A) (A) (A) (A)
                 (A) (A) (A) (A) (A) (A) (A) (A) (A) (A) (A) (A)
                 (A) (A) (A) (A) (A) (A) (A) (A) (A) (A) (A) (A)
                 (A) (A) (A) (A) (A) (A) (A) (A) (A) (A) (A) (A)
                 (A) (A) (A) (A) (A) (A) (A) (A) (A) (A) (A) (A)
                 (A) (A) (A) (A) (A) (A) (A) (A) (A) (A) (A) (A)
                 (A) (A) (A) (A) (A) (A) (A) (A) (A) (A) (A) (A)
                 (A) (A) (A) (A) (A) (A) (A) (A) (A) (A) (A) (A)
                 (A) (A) (A) (A) (A) (A) (A) (A) (A) (A) (A) (A)
                 (A) (A) (A)
 The electronic state is 1-A.
 Alpha  occ. eigenvalues --  -19.62775 -19.62717 -10.64563 -10.64557 -10.58251
 Alpha  occ. eigenvalues --  -10.57717 -10.56588 -10.56580 -10.55026 -10.54217
 Alpha  occ. eigenvalues --  -10.52857 -10.52840  -1.18876  -1.18611  -0.98677
 Alpha  occ. eigenvalues --   -0.94564  -0.88534  -0.83023  -0.79322  -0.79133
 Alpha  occ. eigenvalues --   -0.72964  -0.69758  -0.65343  -0.61379  -0.58019
 Alpha  occ. eigenvalues --   -0.55966  -0.53812  -0.53749  -0.52290  -0.52024
 Alpha  occ. eigenvalues --   -0.50750  -0.49828  -0.48141  -0.48065  -0.47843
 Alpha  occ. eigenvalues --   -0.46316  -0.46138  -0.42993  -0.42014  -0.40378
 Alpha  occ. eigenvalues --   -0.36525  -0.35857  -0.34574  -0.34427
 Alpha virt. eigenvalues --   -0.10336  -0.03108  -0.02239  -0.01226  -0.01079
 Alpha virt. eigenvalues --   -0.00401  -0.00124   0.00161   0.01497   0.01805
 Alpha virt. eigenvalues --    0.02467   0.02473   0.03182   0.03372   0.03909
 Alpha virt. eigenvalues --    0.04148   0.05435   0.05792   0.06793   0.07200
 Alpha virt. eigenvalues --    0.07323   0.07533   0.08029   0.09525   0.09910
 Alpha virt. eigenvalues --    0.10354   0.10934   0.11069   0.11654   0.12196
 Alpha virt. eigenvalues --    0.12269   0.12712   0.12754   0.13244   0.13499
 Alpha virt. eigenvalues --    0.14062   0.14173   0.14427   0.15527   0.15580
 Alpha virt. eigenvalues --    0.15778   0.16542   0.17239   0.17376   0.17687
 Alpha virt. eigenvalues --    0.18156   0.18550   0.18597   0.18920   0.19454
 Alpha virt. eigenvalues --    0.20305   0.22011   0.22295   0.22919   0.22993
 Alpha virt. eigenvalues --    0.23399   0.24046   0.24943   0.25897   0.26287
 Alpha virt. eigenvalues --    0.26699   0.27817   0.28729   0.29978   0.30211
 Alpha virt. eigenvalues --    0.30837   0.31096   0.31470   0.31936   0.32558
 Alpha virt. eigenvalues --    0.32728   0.33839   0.34106   0.34193   0.34337
 Alpha virt. eigenvalues --    0.36221   0.37102   0.38104   0.39285   0.41852
 Alpha virt. eigenvalues --    0.42488   0.42848   0.43911   0.44634   0.45819
 Alpha virt. eigenvalues --    0.46484   0.47101   0.47894   0.53245   0.53596
 Alpha virt. eigenvalues --    0.54014   0.55457   0.56692   0.56706   0.58132
 Alpha virt. eigenvalues --    0.58422   0.59227   0.61304   0.61329   0.64169
 Alpha virt. eigenvalues --    0.64210   0.65471   0.65748   0.66510   0.67252
 Alpha virt. eigenvalues --    0.67526   0.68697   0.69467   0.69756   0.70969
 Alpha virt. eigenvalues --    0.71210   0.72067   0.72761   0.73651   0.75719
 Alpha virt. eigenvalues --    0.76710   0.77219   0.78100   0.78256   0.78646
 Alpha virt. eigenvalues --    0.80932   0.81144   0.85826   0.87354   0.89506
 Alpha virt. eigenvalues --    0.91332   0.91828   0.93296   0.93523   0.94979
 Alpha virt. eigenvalues --    0.95761   0.96965   0.99256   0.99805   1.01843
 Alpha virt. eigenvalues --    1.02577   1.03326   1.08318   1.09002   1.09251
 Alpha virt. eigenvalues --    1.11996   1.16243   1.18569   1.19465   1.21740
 Alpha virt. eigenvalues --    1.23061   1.24702   1.26900   1.28036   1.28384
 Alpha virt. eigenvalues --    1.28458   1.29550   1.33489   1.34137   1.39642
 Alpha virt. eigenvalues --    1.41006   1.44788   1.47362   1.48034   1.48342
 Alpha virt. eigenvalues --    1.50289   1.51119   1.51935   1.53950   1.55023
 Alpha virt. eigenvalues --    1.56053   1.56733   1.57682   1.59529   1.60081
 Alpha virt. eigenvalues --    1.61522   1.61933   1.64483   1.65132   1.66013
 Alpha virt. eigenvalues --    1.66697   1.70130   1.70509   1.72497   1.72698
 Alpha virt. eigenvalues --    1.73293   1.77187   1.78457   1.78739   1.81793
 Alpha virt. eigenvalues --    1.82120   1.83505   1.83993   1.84978   1.86303
 Alpha virt. eigenvalues --    1.87354   1.91700   1.93681   1.95271   1.96499
 Alpha virt. eigenvalues --    1.97400   1.99936   2.03939   2.05079   2.07946
 Alpha virt. eigenvalues --    2.08898   2.12175   2.13926   2.14246   2.15683
 Alpha virt. eigenvalues --    2.18956   2.20190   2.23208   2.23918   2.26494
 Alpha virt. eigenvalues --    2.30845   2.33768   2.36080   2.38233   2.38940
 Alpha virt. eigenvalues --    2.42100   2.47133   2.49292   2.50296   2.52029
 Alpha virt. eigenvalues --    2.53342   2.53823   2.54408   2.55646   2.57317
 Alpha virt. eigenvalues --    2.57943   2.58888   2.59220   2.62824   2.64331
 Alpha virt. eigenvalues --    2.66891   2.68396   2.69239   2.69567   2.70356
 Alpha virt. eigenvalues --    2.73134   2.75734   2.75805   2.82449   2.82780
 Alpha virt. eigenvalues --    2.83553   2.85656   2.88430   2.91100   2.91106
 Alpha virt. eigenvalues --    2.94538   2.94912   2.96211   2.96350   2.98503
 Alpha virt. eigenvalues --    3.01831   3.02504   3.05698   3.13774   3.15151
 Alpha virt. eigenvalues --    3.17823   3.22345   3.23442   3.29328   3.30839
 Alpha virt. eigenvalues --    3.35108   3.40064   3.42150   3.46597   3.52528
 Alpha virt. eigenvalues --    3.58002   3.64399   3.67376   3.74174   3.77027
 Alpha virt. eigenvalues --    3.79323   3.80838   3.82538   3.83852   3.85282
 Alpha virt. eigenvalues --    3.86180   3.89978   4.12383   4.18031   4.21772
 Alpha virt. eigenvalues --    4.27570   4.35832   4.37777   4.46999   4.80028
 Alpha virt. eigenvalues --    5.15582   5.16147   5.35315   5.38482   5.81009
 Alpha virt. eigenvalues --    5.88309  23.68274  23.81553  23.88951  23.94531
 Alpha virt. eigenvalues --   23.96189  24.01966  24.02075  24.05465  24.24443
 Alpha virt. eigenvalues --   24.29207  50.01006  50.04172
          Condensed to atoms (all electrons):
               1          2          3          4          5          6
     1  O    7.995540   0.000552  -0.166053   0.350553  -0.014283  -0.014424
     2  O    0.000552   7.985650   0.008637  -0.026644  -0.000141  -0.000120
     3  C   -0.166053   0.008637  19.274805  -8.828586  -0.833688  -0.814904
     4  C    0.350553  -0.026644  -8.828586  20.149292   0.582653   0.575615
     5  C   -0.014283  -0.000141  -0.833688   0.582653   6.128512  -0.192640
     6  C   -0.014424  -0.000120  -0.814904   0.575615  -0.192640   6.115193
     7  C   -0.022388   0.011404   0.828167  -8.711703  -0.100147  -0.100913
     8  C   -0.084854  -0.146941  -3.794019  -0.800556   0.188319   0.186043
     9  C   -0.131622  -0.055538   0.288311  -1.805169  -0.002671  -0.000517
    10  C    0.018474   0.522645   0.700366   0.916261   0.083162   0.083084
    11  C    0.240559  -0.206336  -1.240245   2.772163  -0.052025  -0.052632
    12  C    0.014883   0.099526  -0.163185   0.080468  -0.001476  -0.000833
    13  H   -0.018840  -0.000507   0.787575  -0.396521  -0.073540  -0.072516
    14  H   -0.001731   0.001313   0.250675  -0.181456   0.334655  -0.036555
    15  H    0.000571   0.000061  -0.069339   0.047776   0.396873   0.019587
    16  H   -0.000002   0.000029  -0.090594   0.011464   0.429468  -0.004573
    17  H    0.000491   0.000050  -0.067305   0.045263   0.019698   0.397183
    18  H   -0.001729   0.001283   0.253752  -0.182979  -0.037160   0.335025
    19  H    0.000022   0.000032  -0.092806   0.014624  -0.004342   0.428396
    20  H   -0.002256  -0.038636  -0.098882  -0.107925   0.002424   0.002069
    21  H   -0.024198  -0.001569  -0.042490  -0.078211  -0.000088  -0.000150
    22  H    0.000123  -0.007776   0.000342   0.001508   0.000494  -0.000361
    23  H    0.000124  -0.007869   0.000248   0.000579  -0.000389   0.000470
    24  H    0.000847   0.001821   0.003997   0.003301  -0.000030  -0.000029
               7          8          9         10         11         12
     1  O   -0.022388  -0.084854  -0.131622   0.018474   0.240559   0.014883
     2  O    0.011404  -0.146941  -0.055538   0.522645  -0.206336   0.099526
     3  C    0.828167  -3.794019   0.288311   0.700366  -1.240245  -0.163185
     4  C   -8.711703  -0.800556  -1.805169   0.916261   2.772163   0.080468
     5  C   -0.100147   0.188319  -0.002671   0.083162  -0.052025  -0.001476
     6  C   -0.100913   0.186043  -0.000517   0.083084  -0.052632  -0.000833
     7  C   23.195947   3.801371   4.249824  -4.271295 -12.268029   0.545346
     8  C    3.801371  14.356464  -0.232426  -3.154535  -4.850848   0.010911
     9  C    4.249824  -0.232426  18.964634  -3.614478 -11.178931  -1.847177
    10  C   -4.271295  -3.154535  -3.614478  13.581166   4.373953  -1.784966
    11  C  -12.268029  -4.850848 -11.178931   4.373953  28.729065  -0.017347
    12  C    0.545346   0.010911  -1.847177  -1.784966  -0.017347   8.609761
    13  H    0.152610  -0.006911   0.012793  -0.008634  -0.120812  -0.001588
    14  H    0.044619  -0.066114   0.020386  -0.000919  -0.024343   0.001343
    15  H   -0.037052   0.002806   0.000277  -0.003808   0.014076   0.000991
    16  H    0.013544   0.003783   0.000295   0.004894  -0.002951  -0.000485
    17  H   -0.037760   0.003326   0.000204  -0.003408   0.013788   0.000985
    18  H    0.043701  -0.067797   0.019378   0.000320  -0.023220   0.001129
    19  H    0.013491   0.004425   0.000753   0.004624  -0.003393  -0.000411
    20  H    0.197693   0.678256  -0.203714  -0.130686  -0.008607  -0.028318
    21  H   -0.213498   0.003369  -0.209163   0.137443   0.800522  -0.087763
    22  H   -0.004098  -0.015455   0.099032  -0.016169  -0.048965   0.331908
    23  H   -0.003046  -0.014279   0.098296  -0.016549  -0.050033   0.333102
    24  H    0.066453   0.012062  -0.183548  -0.053278  -0.001124   0.493154
              13         14         15         16         17         18
     1  O   -0.018840  -0.001731   0.000571  -0.000002   0.000491  -0.001729
     2  O   -0.000507   0.001313   0.000061   0.000029   0.000050   0.001283
     3  C    0.787575   0.250675  -0.069339  -0.090594  -0.067305   0.253752
     4  C   -0.396521  -0.181456   0.047776   0.011464   0.045263  -0.182979
     5  C   -0.073540   0.334655   0.396873   0.429468   0.019698  -0.037160
     6  C   -0.072516  -0.036555   0.019587  -0.004573   0.397183   0.335025
     7  C    0.152610   0.044619  -0.037052   0.013544  -0.037760   0.043701
     8  C   -0.006911  -0.066114   0.002806   0.003783   0.003326  -0.067797
     9  C    0.012793   0.020386   0.000277   0.000295   0.000204   0.019378
    10  C   -0.008634  -0.000919  -0.003808   0.004894  -0.003408   0.000320
    11  C   -0.120812  -0.024343   0.014076  -0.002951   0.013788  -0.023220
    12  C   -0.001588   0.001343   0.000991  -0.000485   0.000985   0.001129
    13  H    0.406865   0.008430  -0.006272  -0.010296  -0.006439   0.008168
    14  H    0.008430   0.541298  -0.044898  -0.044343  -0.002662  -0.009525
    15  H   -0.006272  -0.044898   0.494080  -0.023466  -0.001826  -0.002538
    16  H   -0.010296  -0.044343  -0.023466   0.497821   0.002082   0.014741
    17  H   -0.006439  -0.002662  -0.001826   0.002082   0.494147  -0.044656
    18  H    0.008168  -0.009525  -0.002538   0.014741  -0.044656   0.541048
    19  H   -0.010011   0.014644   0.001969  -0.023042  -0.023382  -0.044569
    20  H    0.000251  -0.010553   0.001420  -0.001227   0.001393  -0.010592
    21  H   -0.000318  -0.000163  -0.000502  -0.000031  -0.000512  -0.000161
    22  H    0.000053   0.000032  -0.000106   0.000022   0.000016   0.000050
    23  H    0.000060   0.000053   0.000018  -0.000006  -0.000103   0.000030
    24  H   -0.000025   0.000007   0.000028  -0.000006   0.000030   0.000010
              19         20         21         22         23         24
     1  O    0.000022  -0.002256  -0.024198   0.000123   0.000124   0.000847
     2  O    0.000032  -0.038636  -0.001569  -0.007776  -0.007869   0.001821
     3  C   -0.092806  -0.098882  -0.042490   0.000342   0.000248   0.003997
     4  C    0.014624  -0.107925  -0.078211   0.001508   0.000579   0.003301
     5  C   -0.004342   0.002424  -0.000088   0.000494  -0.000389  -0.000030
     6  C    0.428396   0.002069  -0.000150  -0.000361   0.000470  -0.000029
     7  C    0.013491   0.197693  -0.213498  -0.004098  -0.003046   0.066453
     8  C    0.004425   0.678256   0.003369  -0.015455  -0.014279   0.012062
     9  C    0.000753  -0.203714  -0.209163   0.099032   0.098296  -0.183548
    10  C    0.004624  -0.130686   0.137443  -0.016169  -0.016549  -0.053278
    11  C   -0.003393  -0.008607   0.800522  -0.048965  -0.050033  -0.001124
    12  C   -0.000411  -0.028318  -0.087763   0.331908   0.333102   0.493154
    13  H   -0.010011   0.000251  -0.000318   0.000053   0.000060  -0.000025
    14  H    0.014644  -0.010553  -0.000163   0.000032   0.000053   0.000007
    15  H    0.001969   0.001420  -0.000502  -0.000106   0.000018   0.000028
    16  H   -0.023042  -0.001227  -0.000031   0.000022  -0.000006  -0.000006
    17  H   -0.023382   0.001393  -0.000512   0.000016  -0.000103   0.000030
    18  H   -0.044569  -0.010592  -0.000161   0.000050   0.000030   0.000010
    19  H    0.498096  -0.001228  -0.000034  -0.000004   0.000022  -0.000007
    20  H   -0.001228   0.462992   0.003910  -0.000745  -0.000730  -0.000387
    21  H   -0.000034   0.003910   0.414908  -0.000369  -0.000335  -0.008465
    22  H   -0.000004  -0.000745  -0.000369   0.491295  -0.059000  -0.021395
    23  H    0.000022  -0.000730  -0.000335  -0.059000   0.491362  -0.021491
    24  H   -0.000007  -0.000387  -0.008465  -0.021395  -0.021491   0.476509
 Mulliken charges:
               1
     1  O   -0.140360
     2  O   -0.140929
     3  C   -0.094777
     4  C    1.568230
     5  C   -0.853639
     6  C   -0.851499
     7  C   -1.394241
     8  C   -0.016399
     9  C    1.710771
    10  C   -1.367664
    11  C   -0.794283
    12  C   -0.589957
    13  H    0.356426
    14  H    0.205806
    15  H    0.209273
    16  H    0.222877
    17  H    0.209399
    18  H    0.206289
    19  H    0.222129
    20  H    0.294078
    21  H    0.307868
    22  H    0.249568
    23  H    0.249467
    24  H    0.231566
 Sum of Mulliken charges =  -0.00000
 Mulliken charges with hydrogens summed into heavy atoms:
               1
     1  O   -0.140360
     2  O   -0.140929
     3  C    0.261649
     4  C    1.568230
     5  C   -0.215683
     6  C   -0.213681
     7  C   -1.394241
     8  C    0.277679
     9  C    1.710771
    10  C   -1.367664
    11  C   -0.486416
    12  C    0.140644
 Electronic spatial extent (au):  <R**2>=           2273.9766
 Charge=              0.0000 electrons
 Dipole moment (field-independent basis, Debye):
    X=              0.1685    Y=              0.0759    Z=             -0.0033  Tot=              0.1848
 Quadrupole moment (field-independent basis, Debye-Ang):
   XX=            -66.2151   YY=            -84.7269   ZZ=            -72.2942
   XY=            -10.6398   XZ=             -0.0091   YZ=             -0.0101
 Traceless Quadrupole moment (field-independent basis, Debye-Ang):
   XX=              8.1970   YY=            -10.3149   ZZ=              2.1179
   XY=            -10.6398   XZ=             -0.0091   YZ=             -0.0101
 Octapole moment (field-independent basis, Debye-Ang**2):
  XXX=             -7.4713  YYY=             -4.4685  ZZZ=              0.0001  XYY=              3.3200
  XXY=             17.2385  XXZ=             -0.0416  XZZ=             -2.0670  YZZ=              0.5093
  YYZ=             -0.0288  XYZ=              0.0077
 Hexadecapole moment (field-independent basis, Debye-Ang**3):
 XXXX=          -1970.9019 YYYY=           -825.3311 ZZZZ=           -258.8886 XXXY=            -15.9716
 XXXZ=             -0.0468 YYYX=            -59.4309 YYYZ=              0.0081 ZZZX=              0.0026
 ZZZY=              0.0602 XXYY=           -501.8570 XXZZ=           -388.4375 YYZZ=           -167.2259
 XXYZ=              0.0110 YYXZ=             -0.0497 ZZXY=             14.8671
 N-N= 6.803898802596D+02 E-N=-2.614782970177D+03  KE= 5.362499794260D+02
 R6APFD:  NTU= -4 IXU= 1 FactS= 1.050
 Calling FoFJK, ICntrl=      2127 FMM=F ISym2X=0 I1Cent= 0 IOpClX= 0 NMat=1 NMatS=1 NMatT=0.
 ***** Axes restored to original set *****
 -------------------------------------------------------------------
 Center     Atomic                   Forces (Hartrees/Bohr)
 Number     Number              X              Y              Z
 -------------------------------------------------------------------
      1        8          -0.011621920   -0.021686534   -0.000031359
      2        8           0.009530587    0.023232657   -0.000018903
      3        6           0.010019446   -0.003903164    0.000296186
      4        6           0.004960005    0.001138001   -0.000646861
      5        6           0.004148455   -0.000768971    0.006064800
      6        6           0.002935377   -0.000577993   -0.005600596
      7        6           0.005289823    0.025424958    0.000026392
      8        6          -0.002144030    0.003143661   -0.000100700
      9        6          -0.009396861    0.006623008   -0.000063543
     10        6          -0.005601760   -0.025968338    0.000085162
     11        6           0.000987733   -0.002126643    0.000021377
     12        6          -0.001305449    0.002241244   -0.000006219
     13        1          -0.006994380    0.003667864   -0.000018572
     14        1          -0.002206934   -0.001399036   -0.001172237
     15        1          -0.000714632   -0.000254760    0.000620427
     16        1           0.001154258   -0.000165949   -0.000478154
     17        1          -0.000626931   -0.000261229   -0.000729690
     18        1          -0.002120825   -0.001412540    0.001114671
     19        1           0.001078147   -0.000099947    0.000600338
     20        1           0.000875237   -0.003573396   -0.000004723
     21        1           0.000112165    0.003135424    0.000009542
     22        1          -0.000725961   -0.003649315   -0.001089227
     23        1          -0.000697292   -0.003633874    0.001117010
     24        1           0.003065745    0.000874872    0.000004875
 -------------------------------------------------------------------
 Cartesian Forces:  Max     0.025968338 RMS     0.006623643

 GradGradGradGradGradGradGradGradGradGradGradGradGradGradGradGradGradGrad
 Berny optimization.
 FormGI is forming the generalized inverse of G from B-inverse, IUseBI=4.
 Internal  Forces:  Max     0.024712283 RMS     0.003878264
 Search for a local minimum.
 Step number   1 out of a maximum of  130
 All quantities printed in internal units (Hartrees-Bohrs-Radians)
 Mixed Optimization -- RFO/linear search
 Second derivative matrix not updated -- first step.
 ITU=  0
     Eigenvalues ---    0.00410   0.00421   0.00804   0.00805   0.01006
     Eigenvalues ---    0.01006   0.01008   0.01395   0.01480   0.01686
     Eigenvalues ---    0.02025   0.02216   0.02256   0.04083   0.05002
     Eigenvalues ---    0.05381   0.05387   0.05614   0.05622   0.05655
     Eigenvalues ---    0.07197   0.07336   0.16000   0.16000   0.16000
     Eigenvalues ---    0.16000   0.16000   0.16000   0.16000   0.16000
     Eigenvalues ---    0.16000   0.16000   0.16000   0.16678   0.18037
     Eigenvalues ---    0.23000   0.23912   0.25000   0.25000   0.25000
     Eigenvalues ---    0.25000   0.25000   0.29713   0.29789   0.32614
     Eigenvalues ---    0.32678   0.32688   0.33706   0.33964   0.34112
     Eigenvalues ---    0.34138   0.34145   0.34146   0.34151   0.34168
     Eigenvalues ---    0.34173   0.34221   0.34244   0.34250   0.34783
     Eigenvalues ---    0.35342   0.35377   0.54124   0.57726   0.92303
     Eigenvalues ---    0.92315
 RFO step:  Lambda=-4.39399073D-03 EMin= 4.10279127D-03
 Linear search not attempted -- first point.
 Iteration  1 RMS(Cart)=  0.02234081 RMS(Int)=  0.00029893
 Iteration  2 RMS(Cart)=  0.00034090 RMS(Int)=  0.00007229
 Iteration  3 RMS(Cart)=  0.00000004 RMS(Int)=  0.00007229
 Variable       Old X    -DE/DX   Delta X   Delta X   Delta X     New X
                                 (Linear)    (Quad)   (Total)
    R1        2.31884  -0.02453   0.00000  -0.02645  -0.02645   2.29239
    R2        2.31890  -0.02471   0.00000  -0.02665  -0.02665   2.29225
    R3        2.82920   0.00683   0.00000   0.02063   0.02063   2.84983
    R4        2.88386   0.00613   0.00000   0.02028   0.02028   2.90413
    R5        2.88540   0.00530   0.00000   0.01757   0.01757   2.90297
    R6        2.07142   0.00070   0.00000   0.00202   0.00202   2.07344
    R7        2.80709   0.00802   0.00000   0.02351   0.02351   2.83060
    R8        2.52773   0.00217   0.00000   0.00375   0.00376   2.53149
    R9        2.07039   0.00189   0.00000   0.00545   0.00545   2.07583
   R10        2.07097   0.00065   0.00000   0.00188   0.00188   2.07285
   R11        2.07086   0.00113   0.00000   0.00326   0.00326   2.07412
   R12        2.07084   0.00070   0.00000   0.00203   0.00203   2.07287
   R13        2.07048   0.00187   0.00000   0.00541   0.00541   2.07590
   R14        2.07075   0.00106   0.00000   0.00305   0.00305   2.07380
   R15        2.79319   0.00247   0.00000   0.00716   0.00716   2.80035
   R16        2.79338   0.00159   0.00000   0.00435   0.00436   2.79774
   R17        2.05068   0.00362   0.00000   0.01012   0.01012   2.06080
   R18        2.80675   0.00464   0.00000   0.01329   0.01329   2.82004
   R19        2.52800   0.00204   0.00000   0.00350   0.00349   2.53149
   R20        2.82903  -0.00047   0.00000  -0.00142  -0.00142   2.82761
   R21        2.05124   0.00281   0.00000   0.00786   0.00786   2.05910
   R22        2.06910   0.00105   0.00000   0.00302   0.00302   2.07212
   R23        2.06921   0.00100   0.00000   0.00290   0.00290   2.07211
   R24        2.06959  -0.00023   0.00000  -0.00068  -0.00068   2.06891
    A1        1.92582   0.00169   0.00000   0.00623   0.00631   1.93213
    A2        1.93467   0.00038   0.00000  -0.00202  -0.00200   1.93266
    A3        1.93380  -0.00393   0.00000  -0.05733  -0.05712   1.87668
    A4        1.93456  -0.00207   0.00000  -0.00048  -0.00065   1.93391
    A5        1.86671   0.00173   0.00000   0.02691   0.02660   1.89331
    A6        1.86638   0.00217   0.00000   0.02746   0.02699   1.89338
    A7        2.04768   0.00430   0.00000   0.01679   0.01679   2.06446
    A8        2.14366   0.00027   0.00000   0.00094   0.00094   2.14460
    A9        2.09184  -0.00458   0.00000  -0.01773  -0.01772   2.07412
   A10        1.96269  -0.00301   0.00000  -0.02194  -0.02197   1.94072
   A11        1.94025   0.00080   0.00000   0.00523   0.00516   1.94541
   A12        1.92517   0.00019   0.00000   0.00433   0.00430   1.92946
   A13        1.88585   0.00051   0.00000  -0.00273  -0.00279   1.88306
   A14        1.87118   0.00134   0.00000   0.00730   0.00730   1.87848
   A15        1.87516   0.00034   0.00000   0.00909   0.00903   1.88419
   A16        1.93889   0.00098   0.00000   0.00658   0.00654   1.94543
   A17        1.96154  -0.00289   0.00000  -0.02100  -0.02102   1.94051
   A18        1.92592  -0.00007   0.00000   0.00227   0.00223   1.92815
   A19        1.88565   0.00043   0.00000  -0.00233  -0.00236   1.88329
   A20        1.87613   0.00034   0.00000   0.00871   0.00866   1.88479
   A21        1.87233   0.00137   0.00000   0.00693   0.00691   1.87924
   A22        2.12831  -0.00399   0.00000  -0.01592  -0.01591   2.11240
   A23        2.10036   0.00035   0.00000   0.00113   0.00113   2.10148
   A24        2.05451   0.00364   0.00000   0.01479   0.01479   2.06930
   A25        2.13676   0.00054   0.00000   0.00218   0.00220   2.13896
   A26        2.12336   0.00038   0.00000   0.00287   0.00287   2.12623
   A27        2.02306  -0.00092   0.00000  -0.00506  -0.00506   2.01800
   A28        2.09177  -0.00309   0.00000  -0.01245  -0.01246   2.07931
   A29        2.04794  -0.00310   0.00000  -0.01206  -0.01205   2.03588
   A30        2.14348   0.00620   0.00000   0.02451   0.02451   2.16799
   A31        2.10018   0.00324   0.00000   0.01297   0.01297   2.11315
   A32        2.12837  -0.00711   0.00000  -0.02770  -0.02770   2.10067
   A33        2.05464   0.00387   0.00000   0.01472   0.01473   2.06936
   A34        2.13684  -0.00038   0.00000  -0.00151  -0.00153   2.13532
   A35        2.03245  -0.00124   0.00000  -0.00792  -0.00791   2.02454
   A36        2.11389   0.00162   0.00000   0.00943   0.00944   2.12333
   A37        1.92760   0.00056   0.00000   0.00036   0.00034   1.92794
   A38        1.92772   0.00053   0.00000   0.00017   0.00015   1.92787
   A39        1.95441  -0.00370   0.00000  -0.01634  -0.01631   1.93810
   A40        1.89468  -0.00281   0.00000  -0.02910  -0.02917   1.86551
   A41        1.87870   0.00274   0.00000   0.02261   0.02263   1.90134
   A42        1.87868   0.00275   0.00000   0.02264   0.02267   1.90135
    D1        2.06824   0.00062   0.00000  -0.00295  -0.00294   2.06530
    D2       -1.07334   0.00062   0.00000  -0.00267  -0.00265  -1.07599
    D3       -2.06510  -0.00058   0.00000  -0.00062  -0.00076  -2.06585
    D4        1.07651  -0.00057   0.00000  -0.00033  -0.00047   1.07605
    D5        0.00418  -0.00014   0.00000  -0.00438  -0.00426  -0.00009
    D6       -3.13740  -0.00013   0.00000  -0.00410  -0.00397  -3.14137
    D7        1.14146   0.00059   0.00000  -0.00472  -0.00469   1.13677
    D8       -0.97570   0.00149   0.00000   0.01050   0.01052  -0.96518
    D9       -3.05393   0.00043   0.00000  -0.00699  -0.00699  -3.06092
   D10       -1.00845   0.00036   0.00000  -0.00616  -0.00609  -1.01455
   D11       -3.12561   0.00126   0.00000   0.00907   0.00912  -3.11649
   D12        1.07935   0.00020   0.00000  -0.00843  -0.00840   1.07095
   D13       -3.03700  -0.00214   0.00000  -0.05413  -0.05418  -3.09118
   D14        1.12903  -0.00124   0.00000  -0.03890  -0.03897   1.09006
   D15       -0.94920  -0.00229   0.00000  -0.05640  -0.05649  -1.00568
   D16        0.98166  -0.00184   0.00000  -0.01299  -0.01307   0.96859
   D17       -1.13345  -0.00107   0.00000   0.00001  -0.00006  -1.13352
   D18        3.06072  -0.00084   0.00000   0.00356   0.00350   3.06422
   D19        3.12646  -0.00086   0.00000  -0.00678  -0.00686   3.11960
   D20        1.01135  -0.00009   0.00000   0.00622   0.00615   1.01749
   D21       -1.07766   0.00014   0.00000   0.00978   0.00971  -1.06795
   D22       -1.12798   0.00136   0.00000   0.04084   0.04098  -1.08700
   D23        3.04009   0.00213   0.00000   0.05384   0.05399   3.09408
   D24        0.95108   0.00236   0.00000   0.05740   0.05755   1.00863
   D25       -0.00077   0.00001   0.00000   0.00066   0.00066  -0.00011
   D26        3.14067   0.00003   0.00000   0.00136   0.00137  -3.14114
   D27        3.14081   0.00001   0.00000   0.00038   0.00038   3.14119
   D28       -0.00094   0.00002   0.00000   0.00109   0.00109   0.00015
   D29       -3.14095  -0.00003   0.00000  -0.00136  -0.00136   3.14088
   D30       -0.00055  -0.00001   0.00000  -0.00047  -0.00047  -0.00102
   D31        0.00066  -0.00003   0.00000  -0.00107  -0.00107  -0.00041
   D32        3.14107  -0.00001   0.00000  -0.00018  -0.00018   3.14088
   D33       -3.14096   0.00000   0.00000   0.00001   0.00002  -3.14094
   D34        0.00050   0.00000   0.00000  -0.00004  -0.00004   0.00046
   D35        0.00079  -0.00001   0.00000  -0.00068  -0.00069   0.00010
   D36       -3.14094  -0.00001   0.00000  -0.00073  -0.00074   3.14151
   D37        3.14155   0.00000   0.00000  -0.00034  -0.00035   3.14120
   D38       -0.00019   0.00002   0.00000   0.00060   0.00061   0.00041
   D39        0.00108  -0.00002   0.00000  -0.00119  -0.00119  -0.00011
   D40       -3.14066  -0.00000   0.00000  -0.00024  -0.00023  -3.14089
   D41        3.14146   0.00001   0.00000   0.00080   0.00079  -3.14094
   D42        0.00002  -0.00001   0.00000  -0.00017  -0.00016  -0.00015
   D43       -0.00067   0.00002   0.00000   0.00126   0.00125   0.00058
   D44        3.14107   0.00000   0.00000   0.00030   0.00029   3.14137
   D45       -0.00034   0.00000   0.00000   0.00025   0.00025  -0.00009
   D46        3.14139   0.00001   0.00000   0.00031   0.00031  -3.14149
   D47       -3.14137  -0.00000   0.00000  -0.00023  -0.00023   3.14159
   D48        0.00037  -0.00000   0.00000  -0.00017  -0.00017   0.00019
   D49        1.04855  -0.00140   0.00000  -0.01828  -0.01824   1.03031
   D50       -1.04756   0.00139   0.00000   0.01769   0.01765  -1.02990
   D51       -3.14112  -0.00000   0.00000  -0.00025  -0.00025  -3.14138
   D52       -2.09359  -0.00140   0.00000  -0.01781  -0.01778  -2.11137
   D53        2.09348   0.00140   0.00000   0.01816   0.01812   2.11161
   D54       -0.00008   0.00001   0.00000   0.00022   0.00022   0.00013
         Item               Value     Threshold  Converged?
 Maximum Force            0.024712     0.000450     NO 
 RMS     Force            0.003878     0.000300     NO 
 Maximum Displacement     0.086423     0.001800     NO 
 RMS     Displacement     0.022358     0.001200     NO 
 Predicted change in Energy=-2.273731D-03
 GradGradGradGradGradGradGradGradGradGradGradGradGradGradGradGradGradGrad

                          Input orientation:                          
 ---------------------------------------------------------------------
 Center     Atomic      Atomic             Coordinates (Angstroms)
 Number     Number       Type             X           Y           Z
 ---------------------------------------------------------------------
      1          8           0        0.873149    2.373089    0.004414
      2          8           0       -2.047373   -2.032167   -0.005977
      3          6           0        2.379885   -0.048974    0.002030
      4          6           0        0.872940    0.009058    0.000197
      5          6           0        2.894906   -0.753829    1.266820
      6          6           0        2.898683   -0.749750   -1.262736
      7          6           0        0.214436    1.354436    0.001688
      8          6           0        0.103008   -1.087183   -0.002349
      9          6           0       -2.031106    0.318974   -0.001771
     10          6           0       -1.376051   -1.021868   -0.003245
     11          6           0       -1.266052    1.418626    0.000482
     12          6           0       -3.527328    0.334913   -0.003052
     13          1           0        2.750307    0.983820    0.004210
     14          1           0        2.591559   -1.809447    1.284622
     15          1           0        2.510144   -0.277242    2.176779
     16          1           0        3.991329   -0.722335    1.306045
     17          1           0        2.519315   -0.268516   -2.172525
     18          1           0        2.592753   -1.804552   -1.285923
     19          1           0        3.995199   -0.720100   -1.295624
     20          1           0        0.530760   -2.090315   -0.004181
     21          1           0       -1.700804    2.417766    0.001723
     22          1           0       -3.917046   -0.190932    0.876695
     23          1           0       -3.915444   -0.188612   -0.884882
     24          1           0       -3.909570    1.360840   -0.002042
 ---------------------------------------------------------------------
                    Distance matrix (angstroms):
                    1          2          3          4          5
     1  O    0.000000
     2  O    5.285436   0.000000
     3  C    2.852481   4.851158   0.000000
     4  C    2.364034   3.562986   1.508063   0.000000
     5  C    3.931766   5.261206   1.536802   2.504930   0.000000
     6  C    3.931995   5.261892   1.536187   2.504880   2.529562
     7  C    1.213080   4.072459   2.580451   1.497889   3.637342
     8  C    3.544947   2.348860   2.502412   1.339607   3.084901
     9  C    3.557263   2.351201   4.426312   2.920537   5.198637
    10  C    4.072431   1.213006   3.879898   2.474022   4.463854
    11  C    2.342477   3.538145   3.930230   2.561673   4.861763
    12  C    4.849578   2.791656   5.919675   4.412318   6.636492
    13  H    2.335335   5.666923   1.097215   2.115345   2.152793
    14  H    4.699518   4.820263   2.188405   2.812536   1.098484
    15  H    3.797785   5.349313   2.190572   2.738597   1.096906
    16  H    4.582460   6.316881   2.179592   3.458977   1.097576
    17  H    3.798290   5.353414   2.190052   2.740131   3.493664
    18  H    4.698371   4.818801   2.187737   2.810880   2.777015
    19  H    4.583134   6.316438   2.177971   3.458226   2.788889
    20  H    4.476525   2.578789   2.754337   2.127081   2.998471
    21  H    2.574343   4.463415   4.768315   3.525058   5.725385
    22  H    5.502822   2.768562   6.358972   4.873624   6.846294
    23  H    5.503070   2.767826   6.359031   4.873506   7.164507
    24  H    4.888670   3.870438   6.445529   4.969882   7.237592
                    6          7          8          9         10
     6  C    0.000000
     7  C    3.637520   0.000000
     8  C    3.085164   2.444164   0.000000
     9  C    5.199522   2.472782   2.555723   0.000000
    10  C    4.464720   2.859458   1.480501   1.492299   0.000000
    11  C    4.862365   1.481880   2.855418   1.339607   2.442975
    12  C    6.637538   3.878175   3.898935   1.496307   2.543393
    13  H    2.152309   2.562812   3.361145   4.827418   4.587993
    14  H    2.776025   4.160143   2.893241   5.249191   4.245093
    15  H    3.493492   3.558605   3.346477   5.071933   4.517686
    16  H    2.791641   4.503248   4.118744   6.250154   5.532877
    17  H    1.096915   3.560006   3.349391   5.075790   4.521857
    18  H    1.098517   4.158551   2.891541   5.247712   4.243732
    19  H    1.097409   4.503431   4.117823   6.250606   5.532779
    20  H    2.998022   3.459249   1.090527   3.516793   2.185751
    21  H    5.726020   2.190620   3.941881   2.124627   3.454935
    22  H    7.165445   4.496993   4.211510   2.142073   2.814499
    23  H    6.847626   4.496989   4.211205   2.142022   2.814270
    24  H    7.238526   4.124013   4.700383   2.148049   3.477933
                   11         12         13         14         15
    11  C    0.000000
    12  C    2.507551   0.000000
    13  H    4.039828   6.311088   0.000000
    14  H    5.191400   6.610382   3.076850   0.000000
    15  H    4.676739   6.448059   2.523493   1.774887   0.000000
    16  H    5.824797   7.704655   2.479088   1.772464   1.774879
    17  H    4.679467   6.452335   2.521880   3.785704   4.349322
    18  H    5.189806   6.608968   3.076408   2.570550   3.785473
    19  H    5.825359   7.705336   2.478441   3.132819   3.802512
    20  H    3.942235   4.727558   3.791671   2.446792   3.458581
    21  H    1.089629   2.770286   4.676388   6.159508   5.452158
    22  H    3.222762   1.096516   6.826044   6.719221   6.557929
    23  H    3.222787   1.096511   6.826223   7.048045   7.118272
    24  H    2.644151   1.094823   6.670544   7.346489   6.974475
                   16         17         18         19         20
    16  H    0.000000
    17  H    3.804369   0.000000
    18  H    3.137755   1.775067   0.000000
    19  H    2.601673   1.775138   1.772847   0.000000
    20  H    3.945073   3.460494   2.444655   3.943051   0.000000
    21  H    6.630375   5.454620   6.157974   6.631272   5.030179
    22  H    7.937829   7.122535   7.046855   8.222081   4.915951
    23  H    8.222048   6.562814   6.717791   7.939110   4.915367
    24  H    8.274958   6.978278   7.344948   8.275811   5.623789
                   21         22         23         24
    21  H    0.000000
    22  H    3.533073   0.000000
    23  H    3.533256   1.761579   0.000000
    24  H    2.448623   1.783320   1.783323   0.000000
 Stoichiometry    C10H12O2
 Framework group  C1[X(C10H12O2)]
 Deg. of freedom    66
 Full point group                 C1      NOp   1
 Largest Abelian subgroup         C1      NOp   1
 Largest concise Abelian subgroup C1      NOp   1
                         Standard orientation:                         
 ---------------------------------------------------------------------
 Center     Atomic      Atomic             Coordinates (Angstroms)
 Number     Number       Type             X           Y           Z
 ---------------------------------------------------------------------
      1          8           0        0.703460    2.428264    0.000045
      2          8           0       -2.021140   -2.100797   -0.000395
      3          6           0        2.314926    0.074580   -0.000156
      4          6           0        0.806885    0.066493   -0.000488
      5          6           0        2.861600   -0.604991    1.265185
      6          6           0        2.862698   -0.604806   -1.264376
      7          6           0        0.090035    1.381711   -0.000397
      8          6           0        0.085749   -1.062449   -0.000512
      9          6           0       -2.107956    0.248800    0.000129
     10          6           0       -1.394752   -1.062038    0.000053
     11          6           0       -1.391845    1.380935   -0.000139
     12          6           0       -3.603439    0.199131    0.000405
     13          1           0        2.639717    1.122623    0.000022
     14          1           0        2.604840   -1.672863    1.284953
     15          1           0        2.457213   -0.144271    2.174807
     16          1           0        3.955627   -0.525400    1.303202
     17          1           0        2.461700   -0.142124   -2.174513
     18          1           0        2.603281   -1.672041   -1.285597
     19          1           0        3.956827   -0.527168   -1.298469
     20          1           0        0.557064   -2.045867   -0.001233
     21          1           0       -1.869979    2.360057    0.000004
     22          1           0       -3.968861   -0.341882    0.881381
     23          1           0       -3.969102   -0.342318   -0.880198
     24          1           0       -4.030289    1.207316    0.000219
 ---------------------------------------------------------------------
 Rotational constants (GHZ):           1.5676391           0.6555428           0.5152423
 Standard basis: 6-311++G(d,p) (5D, 7F)
 There are   360 symmetry adapted cartesian basis functions of A   symmetry.
 There are   348 symmetry adapted basis functions of A   symmetry.
   348 basis functions,   540 primitive gaussians,   360 cartesian basis functions
    44 alpha electrons       44 beta electrons
       nuclear repulsion energy       679.2251816575 Hartrees.
 NAtoms=   24 NActive=   24 NUniq=   24 SFac= 1.00D+00 NAtFMM=   60 NAOKFM=F Big=F
 Integral buffers will be    131072 words long.
 Raffenetti 2 integral format.
 Two-electron integral symmetry is turned on.
 R6APFD:  NTU= -4 IXU= 1 FactS= 1.050
 Nuclear repulsion after empirical dispersion term =      679.2078000156 Hartrees.
 One-electron integrals computed using PRISM.
 NBasis=   348 RedAO= T EigKep=  1.35D-06  NBF=   348
 NBsUse=   347 1.00D-06 EigRej=  6.79D-07 NBFU=   347
 Initial guess from the checkpoint file:  "TQUE0077.chk"
 B after Tr=    -0.000000   -0.000000    0.000000
         Rot=    0.999997    0.000484   -0.000341   -0.002335 Ang=   0.28 deg.
 ExpMin= 3.60D-02 ExpMax= 8.59D+03 ExpMxC= 1.30D+03 IAcc=3 IRadAn=         5 AccDes= 0.00D+00
 Harris functional with IExCor= 1009 and IRadAn=       5 diagonalized for initial guess.
 HarFok:  IExCor= 1009 AccDes= 0.00D+00 IRadAn=         5 IDoV= 1 UseB2=F ITyADJ=14
 ICtDFT=  3500011 ScaDFX=  1.000000  1.000000  1.000000  1.000000
 FoFCou: FMM=F IPFlag=           0 FMFlag=      100000 FMFlg1=           0
         NFxFlg=           0 DoJE=T BraDBF=F KetDBF=T FulRan=T
         wScrn=  0.000000 ICntrl=       500 IOpCl=  0 I1Cent=   200000004 NGrid=           0
         NMat0=    1 NMatS0=      1 NMatT0=    0 NMatD0=    1 NMtDS0=    0 NMtDT0=    0
 Petite list used in FoFCou.
 Requested convergence on RMS density matrix=1.00D-08 within  32 cycles.
 Requested convergence on MAX density matrix=1.00D-06.
 Requested convergence on             energy=1.00D-06.
 No special actions if energy rises.
 SCF Done:  E(RM08HX) =  -538.716635983     A.U. after   13 cycles
            NFock= 13  Conv=0.75D-08     -V/T= 2.0047
 QCSCF skips out because SCF is already converged.
 R6APFD:  NTU= -4 IXU= 1 FactS= 1.050
 Calling FoFJK, ICntrl=      2127 FMM=F ISym2X=0 I1Cent= 0 IOpClX= 0 NMat=1 NMatS=1 NMatT=0.
 ***** Axes restored to original set *****
 -------------------------------------------------------------------
 Center     Atomic                   Forces (Hartrees/Bohr)
 Number     Number              X              Y              Z
 -------------------------------------------------------------------
      1        8          -0.001659554   -0.003256862   -0.000037095
      2        8           0.001489951    0.002632165    0.000044885
      3        6           0.002954159   -0.000328435    0.000224552
      4        6           0.000404931   -0.003314524   -0.000001397
      5        6           0.000366842    0.000281393    0.000480193
      6        6           0.000346056    0.000206193   -0.000553951
      7        6           0.001789573    0.006335827    0.000100526
      8        6           0.000336933    0.001527076   -0.000004781
      9        6          -0.001619343    0.004993526    0.000033016
     10        6          -0.000667386   -0.006991969   -0.000127958
     11        6          -0.001845880   -0.002549070   -0.000015775
     12        6          -0.000030944    0.001585208    0.000006425
     13        1          -0.000985290    0.000749420    0.000012475
     14        1          -0.000684231    0.000110924   -0.000537484
     15        1          -0.000129803   -0.000024617   -0.000436174
     16        1          -0.000420388    0.000017399   -0.000660524
     17        1          -0.000105612   -0.000050019    0.000425814
     18        1          -0.000611146    0.000121739    0.000496508
     19        1          -0.000320701   -0.000056781    0.000527891
     20        1          -0.000366815   -0.000432505    0.000033671
     21        1           0.000870739    0.000544238   -0.000007918
     22        1           0.000153278   -0.000950641   -0.000434615
     23        1           0.000150427   -0.000952202    0.000430668
     24        1           0.000584203   -0.000197485    0.000001049
 -------------------------------------------------------------------
 Cartesian Forces:  Max     0.006991969 RMS     0.001611227

 GradGradGradGradGradGradGradGradGradGradGradGradGradGradGradGradGradGrad
 Berny optimization.
 Using GEDIIS/GDIIS optimizer.
 FormGI is forming the generalized inverse of G from B-inverse, IUseBI=4.
 Internal  Forces:  Max     0.003636136 RMS     0.000726711
 Search for a local minimum.
 Step number   2 out of a maximum of  130
 All quantities printed in internal units (Hartrees-Bohrs-Radians)
 Mixed Optimization -- En-DIIS/RFO-DIIS
 Update second derivatives using D2CorX and points    1    2
 DE= -2.49D-03 DEPred=-2.27D-03 R= 1.09D+00
 TightC=F SS=  1.41D+00  RLast= 1.81D-01 DXNew= 5.0454D-01 5.4319D-01
 Trust test= 1.09D+00 RLast= 1.81D-01 DXMaxT set to 5.05D-01
 ITU=  1  0
 Use linear search instead of GDIIS.
     Eigenvalues ---    0.00409   0.00420   0.00804   0.00805   0.01006
     Eigenvalues ---    0.01007   0.01008   0.01391   0.01477   0.01682
     Eigenvalues ---    0.02029   0.02218   0.02252   0.04007   0.04875
     Eigenvalues ---    0.05461   0.05494   0.05589   0.05599   0.05872
     Eigenvalues ---    0.07229   0.07235   0.15213   0.16000   0.16000
     Eigenvalues ---    0.16000   0.16000   0.16000   0.16000   0.16000
     Eigenvalues ---    0.16000   0.16000   0.16151   0.16718   0.18032
     Eigenvalues ---    0.22937   0.23910   0.24435   0.25000   0.25000
     Eigenvalues ---    0.25000   0.25758   0.29741   0.30711   0.32055
     Eigenvalues ---    0.32638   0.32811   0.33356   0.33801   0.34111
     Eigenvalues ---    0.34140   0.34146   0.34149   0.34159   0.34171
     Eigenvalues ---    0.34217   0.34237   0.34248   0.34469   0.34798
     Eigenvalues ---    0.35354   0.35530   0.54173   0.57887   0.88107
     Eigenvalues ---    0.92345
 RFO step:  Lambda=-2.61611224D-04 EMin= 4.09260764D-03
 Quartic linear search produced a step of  0.14743.
 Iteration  1 RMS(Cart)=  0.01331698 RMS(Int)=  0.00016169
 Iteration  2 RMS(Cart)=  0.00016794 RMS(Int)=  0.00001938
 Iteration  3 RMS(Cart)=  0.00000001 RMS(Int)=  0.00001938
 Variable       Old X    -DE/DX   Delta X   Delta X   Delta X     New X
                                 (Linear)    (Quad)   (Total)
    R1        2.29239  -0.00364  -0.00390  -0.00198  -0.00588   2.28651
    R2        2.29225  -0.00302  -0.00393  -0.00119  -0.00512   2.28713
    R3        2.84983   0.00037   0.00304  -0.00071   0.00233   2.85215
    R4        2.90413  -0.00142   0.00299  -0.00743  -0.00444   2.89969
    R5        2.90297  -0.00107   0.00259  -0.00585  -0.00326   2.89971
    R6        2.07344   0.00037   0.00030   0.00106   0.00135   2.07479
    R7        2.83060   0.00211   0.00347   0.00482   0.00829   2.83889
    R8        2.53149  -0.00006   0.00055  -0.00044   0.00011   2.53160
    R9        2.07583   0.00007   0.00080  -0.00028   0.00052   2.07635
   R10        2.07285  -0.00033   0.00028  -0.00128  -0.00100   2.07185
   R11        2.07412  -0.00044   0.00048  -0.00180  -0.00132   2.07279
   R12        2.07287  -0.00034   0.00030  -0.00133  -0.00103   2.07183
   R13        2.07590   0.00004   0.00080  -0.00038   0.00041   2.07631
   R14        2.07380  -0.00034   0.00045  -0.00143  -0.00098   2.07282
   R15        2.80035   0.00068   0.00106   0.00147   0.00252   2.80287
   R16        2.79774   0.00016   0.00064   0.00015   0.00079   2.79854
   R17        2.06080   0.00025   0.00149  -0.00016   0.00133   2.06213
   R18        2.82004   0.00358   0.00196   0.01081   0.01277   2.83280
   R19        2.53149  -0.00096   0.00051  -0.00226  -0.00175   2.52974
   R20        2.82761  -0.00086  -0.00021  -0.00289  -0.00309   2.82452
   R21        2.05910   0.00015   0.00116  -0.00027   0.00089   2.05999
   R22        2.07212   0.00005   0.00044  -0.00012   0.00033   2.07244
   R23        2.07211   0.00006   0.00043  -0.00010   0.00033   2.07244
   R24        2.06891  -0.00039  -0.00010  -0.00124  -0.00134   2.06758
    A1        1.93213  -0.00014   0.00093  -0.00627  -0.00537   1.92676
    A2        1.93266  -0.00014  -0.00030  -0.00541  -0.00574   1.92693
    A3        1.87668  -0.00022  -0.00842   0.00331  -0.00504   1.87164
    A4        1.93391  -0.00026  -0.00010  -0.00357  -0.00375   1.93015
    A5        1.89331   0.00039   0.00392   0.00633   0.01018   1.90349
    A6        1.89338   0.00039   0.00398   0.00638   0.01027   1.90365
    A7        2.06446  -0.00077   0.00247  -0.00515  -0.00267   2.06179
    A8        2.14460   0.00068   0.00014   0.00307   0.00321   2.14781
    A9        2.07412   0.00008  -0.00261   0.00207  -0.00054   2.07358
   A10        1.94072  -0.00105  -0.00324  -0.00653  -0.00979   1.93093
   A11        1.94541  -0.00008   0.00076  -0.00069   0.00005   1.94546
   A12        1.92946  -0.00051   0.00063  -0.00326  -0.00264   1.92682
   A13        1.88306   0.00045  -0.00041   0.00194   0.00150   1.88457
   A14        1.87848   0.00073   0.00108   0.00375   0.00481   1.88329
   A15        1.88419   0.00055   0.00133   0.00539   0.00671   1.89090
   A16        1.94543  -0.00008   0.00096  -0.00084   0.00011   1.94554
   A17        1.94051  -0.00099  -0.00310  -0.00626  -0.00938   1.93114
   A18        1.92815  -0.00032   0.00033  -0.00166  -0.00135   1.92680
   A19        1.88329   0.00041  -0.00035   0.00155   0.00118   1.88447
   A20        1.88479   0.00045   0.00128   0.00478   0.00605   1.89084
   A21        1.87924   0.00061   0.00102   0.00292   0.00392   1.88317
   A22        2.11240  -0.00022  -0.00235   0.00068  -0.00167   2.11073
   A23        2.10148   0.00064   0.00017   0.00294   0.00311   2.10459
   A24        2.06930  -0.00043   0.00218  -0.00362  -0.00144   2.06786
   A25        2.13896   0.00047   0.00032   0.00232   0.00264   2.14160
   A26        2.12623   0.00028   0.00042   0.00218   0.00260   2.12884
   A27        2.01800  -0.00076  -0.00075  -0.00450  -0.00525   2.01275
   A28        2.07931  -0.00003  -0.00184   0.00092  -0.00092   2.07839
   A29        2.03588  -0.00105  -0.00178  -0.00357  -0.00535   2.03054
   A30        2.16799   0.00109   0.00361   0.00265   0.00627   2.17426
   A31        2.11315   0.00057   0.00191   0.00134   0.00325   2.11640
   A32        2.10067   0.00008  -0.00408   0.00307  -0.00102   2.09965
   A33        2.06936  -0.00065   0.00217  -0.00440  -0.00223   2.06713
   A34        2.13532   0.00055  -0.00023   0.00271   0.00249   2.13780
   A35        2.02454  -0.00132  -0.00117  -0.00797  -0.00914   2.01540
   A36        2.12333   0.00077   0.00139   0.00526   0.00665   2.12998
   A37        1.92794  -0.00030   0.00005  -0.00352  -0.00349   1.92445
   A38        1.92787  -0.00029   0.00002  -0.00347  -0.00348   1.92440
   A39        1.93810  -0.00025  -0.00240   0.00255   0.00014   1.93824
   A40        1.86551  -0.00053  -0.00430  -0.00628  -0.01063   1.85487
   A41        1.90134   0.00070   0.00334   0.00531   0.00865   1.90999
   A42        1.90135   0.00070   0.00334   0.00532   0.00866   1.91001
    D1        2.06530   0.00026  -0.00043   0.00680   0.00636   2.07165
    D2       -1.07599   0.00026  -0.00039   0.00667   0.00627  -1.06972
    D3       -2.06585  -0.00026  -0.00011  -0.00596  -0.00608  -2.07193
    D4        1.07605  -0.00027  -0.00007  -0.00609  -0.00617   1.06988
    D5       -0.00009   0.00000  -0.00063   0.00070   0.00009   0.00000
    D6       -3.14137   0.00000  -0.00059   0.00057   0.00000  -3.14137
    D7        1.13677  -0.00026  -0.00069  -0.03005  -0.03072   1.10604
    D8       -0.96518  -0.00006   0.00155  -0.02758  -0.02602  -0.99120
    D9       -3.06092  -0.00036  -0.00103  -0.03173  -0.03274  -3.09366
   D10       -1.01455   0.00020  -0.00090  -0.01622  -0.01712  -1.03166
   D11       -3.11649   0.00040   0.00134  -0.01375  -0.01241  -3.12890
   D12        1.07095   0.00010  -0.00124  -0.01790  -0.01913   1.05182
   D13       -3.09118  -0.00037  -0.00799  -0.02583  -0.03384  -3.12501
   D14        1.09006  -0.00018  -0.00575  -0.02336  -0.02913   1.06093
   D15       -1.00568  -0.00047  -0.00833  -0.02751  -0.03585  -1.04153
   D16        0.96859   0.00005  -0.00193   0.02661   0.02466   0.99325
   D17       -1.13352   0.00026  -0.00001   0.02949   0.02946  -1.10406
   D18        3.06422   0.00035   0.00052   0.03097   0.03146   3.09568
   D19        3.11960  -0.00041  -0.00101   0.01228   0.01126   3.13087
[...]
 90703,-0.31228761,-0.00256672,-0.00248977,0.00036746,-0.00035786,0.000
 80897,-0.00031081,-0.00090876,-0.00011742,-0.00016832,0.00049737,-0.00
 020500,0.00000467,0.00012321,0.00000961,0.00074974,-0.00001398,0.00002
 137,-0.00014194,0.00014201,0.00006330,-0.00001921,0.00001294,-0.000009
 46,0.00028753,0.00039086,-0.00011498,-0.00828315,0.00097696,0.00016644
 ,-0.00861998,-0.00085370,-0.00092823,0.33768434,-0.00018236,-0.0000334
 6,0.00008805,0.00026253,0.00010751,0.00007219,0.01717490,-0.00095595,0
 .00149544,-0.00051653,-0.00079929,0.00295981,-0.00278460,-0.04602491,-
 0.00101306,-0.00025775,0.00007853,-0.00092735,0.00058974,0.00011382,-0
 .00034073,0.00067275,0.00008168,-0.00028601,-0.00003341,-0.00006469,0.
 00007352,-0.00060228,0.00029871,-0.00051772,-0.00000082,-0.00015404,-0
 .00000926,-0.00000362,-0.00000070,0.00001394,0.00020448,0.00006939,-0.
 00068349,-0.03049912,0.00102156,-0.00017225,0.01493482,-0.00049279,0.0
 0116070,0.00117335,0.04644777,0.00028621,0.00019629,-0.00004363,-0.000
 35248,-0.00019364,-0.00006651,-0.02805517,-0.00069290,-0.00198895,-0.0
 0055850,0.00285838,-0.00408158,-0.00114778,-0.00058110,-0.04585939,-0.
 00092761,-0.00027395,0.00166579,-0.00113671,-0.00060800,0.00000081,-0.
 00106929,0.00009557,0.00038265,-0.00000528,0.00010974,-0.00006547,0.00
 082186,-0.00011185,0.00027145,-0.00012462,0.00032862,0.00003898,-0.000
 00643,0.00001568,0.00000115,0.00055617,-0.00021589,0.00106005,-0.00002
 595,-0.00024536,-0.00134679,0.02626603,0.00172528,0.00119415,0.0045037
 5,-0.00240971,0.04939006,-0.00006372,-0.00011769,-0.00002457,0.0001573
 5,0.00007194,0.00000354,0.00238801,-0.00632573,0.01022510,0.00092596,-
 0.00052722,0.00056638,-0.00066130,0.00120152,0.00182423,-0.07648327,0.
 04139690,-0.07421104,0.00015079,0.00026723,0.00003345,0.00027270,-0.00
 027281,-0.00044724,-0.00002250,-0.00006122,0.00001822,-0.00040870,0.00
 007051,-0.00006746,0.00004834,-0.00004235,-0.00002539,0.00000476,-0.00
 000417,-0.00000242,0.00019175,-0.00017207,-0.00072685,-0.00012848,0.00
 019251,-0.00017009,0.00072008,-0.00012488,0.00059969,0.00036230,0.0000
 1041,0.00033033,0.07833897,-0.00030038,-0.00017236,0.00015162,-0.00006
 964,-0.00007820,-0.00003036,-0.00591704,0.00769880,-0.01376107,-0.0002
 8176,0.00051385,-0.00010512,0.00133037,-0.00128189,-0.00252134,0.04129
 905,-0.10330160,0.10208230,0.00008720,0.00041080,0.00000144,-0.0002533
 4,-0.00042841,0.00006923,-0.00003793,-0.00002242,0.00001773,0.00009892
 ,0.00017457,-0.00001135,-0.00002897,0.00000210,0.00000070,-0.00000748,
 0.00000531,0.00000542,-0.00060307,0.00050188,0.00048845,0.00015634,0.0
 0028463,-0.00032126,-0.00012105,0.00071173,-0.00083436,0.00007714,-0.0
 0020535,0.00009355,-0.04589593,0.10808051,-0.00005850,-0.00020223,0.00
 026430,0.00001073,-0.00001662,0.00005020,-0.00816590,0.01265483,-0.020
 07342,-0.00161335,-0.00000468,0.00023550,0.00287303,-0.00390291,-0.003
 96020,-0.07328615,0.10122352,-0.22652924,0.00046509,0.00018000,-0.0003
 6023,0.00045797,0.00032194,0.00043483,0.00004217,0.00002213,0.00002155
 ,0.00004543,0.00005235,-0.00023180,-0.00001369,-0.00012684,-0.00002799
 ,-0.00000592,-0.00001899,0.00000816,-0.00042858,-0.00011288,0.00056040
 ,0.00009859,-0.00007373,0.00030678,-0.00059555,0.00084147,-0.00139702,
 0.00000073,-0.00010418,0.00032692,0.07867759,-0.10835176,0.24821488,-0
 .00031883,-0.00026839,0.00000107,0.00017486,0.00008983,-0.00003727,0.0
 0271000,0.01172948,0.00123890,0.00123117,0.00082468,-0.00077563,-0.000
 01231,-0.00037159,-0.00087013,-0.07218809,-0.07916778,-0.00150195,0.00
 018020,0.00060162,-0.00024795,-0.00020619,0.00009251,0.00016979,0.0000
 7649,-0.00004696,0.00001658,-0.00032521,-0.00010136,0.00005014,0.00006
 604,-0.00004553,-0.00000688,0.00000222,-0.00003177,-0.00000423,-0.0003
 0104,0.00119207,0.00209228,0.00018985,-0.00028064,-0.00025484,-0.00012
 851,0.00015602,-0.00009900,-0.00003249,-0.00017481,0.00007209,0.002636
 76,0.01122366,0.00064493,0.07551619,0.00066063,0.00034572,-0.00000536,
 0.00009407,0.00012220,0.00003188,-0.00390667,-0.01649689,-0.00126290,-
 0.00224232,0.00036872,0.00016730,0.00026574,0.00107154,0.00104920,-0.0
 7807768,-0.28104941,-0.00176039,-0.00017676,-0.00091652,0.00009168,0.0
 0040451,0.00004507,0.00048538,-0.00012196,0.00002125,-0.00005287,0.000
 00766,0.00023058,0.00014306,-0.00001652,0.00000213,-0.00000042,0.00001
 109,0.00005655,-0.00001159,0.00148892,0.00050170,-0.00274714,-0.000279
 72,0.00043975,-0.00085079,0.00019168,0.00028316,0.00007394,0.00009589,
 -0.00003849,-0.00003572,-0.00470215,-0.01247457,-0.00119814,0.08527352
 ,0.30598846,0.00056366,0.00003199,0.00014223,-0.00003409,-0.00008279,-
 0.00003198,-0.00846146,-0.02787195,-0.00254317,-0.00153899,0.00044410,
 0.00055472,-0.00053351,-0.00111122,0.00224374,-0.00103278,-0.00123354,
 -0.04512057,-0.00029821,-0.00051023,0.00018682,-0.00005152,-0.00021462
 ,-0.00016572,-0.00010319,0.00001356,0.00001566,0.00016057,0.00034405,0
 .00006396,-0.00000482,0.00003138,-0.00000350,0.00000024,0.00004007,-0.
 00000282,0.00220163,-0.00199613,-0.00452262,0.00025481,0.00085344,-0.0
 0037437,0.00016994,0.00032174,0.00030829,-0.00007558,0.00008446,-0.000
 07040,0.00952710,0.02466926,0.00102563,-0.00145069,0.00583626,0.050090
 04,0.00020258,0.00042765,0.00001732,-0.00035193,-0.00016104,0.00000868
 ,-0.00999958,-0.00020589,-0.00075738,0.00017190,0.00129323,0.00192140,
 0.00036748,-0.00035592,-0.00081357,-0.31228941,-0.00251832,0.00185395,
 -0.00031367,-0.00091044,0.00011393,-0.00017133,0.00049676,0.00020541,0
 .00000473,0.00012345,-0.00000910,0.00075147,-0.00001414,-0.00002030,-0
 .00014198,0.00014292,-0.00006326,-0.00001925,0.00001293,0.00000948,0.0
 0028836,0.00038981,0.00011470,-0.00003271,0.00009549,0.00007633,0.0003
 6307,0.00007732,-0.00000049,0.00034441,-0.00021540,0.00061901,-0.00855
 759,-0.00085101,0.00090180,-0.00828908,0.00097895,-0.00017941,0.337699
 02,-0.00018111,-0.00003263,-0.00008838,0.00026140,0.00010709,-0.000070
 96,0.01707748,-0.00095580,-0.00145142,-0.00051265,-0.00077874,-0.00294
 903,-0.00026283,0.00007487,0.00092120,-0.00273151,-0.04603125,0.001004
 69,0.00058479,0.00011076,0.00034233,0.00066815,0.00008126,0.00028668,-
 0.00003323,-0.00006401,-0.00007353,-0.00060020,0.00029633,0.00051637,-
 0.00000126,-0.00015294,0.00000861,-0.00000359,-0.00000060,-0.00001398,
 0.00020467,0.00006600,0.00068054,-0.00017454,-0.00003848,-0.00008486,0
 .00001126,-0.00020551,0.00010231,-0.00021339,0.00034303,0.00003006,0.0
 1503551,-0.00048541,-0.00113154,-0.03049733,0.00102662,0.00010926,0.00
 111985,0.04643036,-0.00028640,-0.00019563,-0.00004477,0.00035284,0.000
 19395,-0.00006521,0.02809993,0.00069049,-0.00192849,0.00056608,-0.0028
 4448,-0.00409740,0.00092385,0.00026735,0.00167035,0.00051020,0.0005733
 0,-0.04584582,0.00113843,0.00060683,0.00000626,0.00107045,-0.00009551,
 0.00038597,0.00000527,-0.00010946,-0.00006610,-0.00082288,0.00011195,0
 .00027174,0.00012428,-0.00032914,0.00003829,0.00000638,-0.00001565,0.0
 0000109,-0.00055745,0.00021342,0.00106212,-0.00007263,0.00003638,-0.00
 007048,-0.00033002,-0.00009516,0.00032631,-0.00061732,-0.00002722,-0.0
 0069545,-0.02623469,-0.00172727,0.00112349,-0.00010204,0.00025661,-0.0
 0134577,-0.00382099,0.00240285,0.04938965,0.00060920,-0.00206030,0.000
 00134,0.00379181,-0.00265398,0.00000133,0.00005080,0.00044758,0.000007
 83,0.01417044,-0.01760569,-0.00002612,-0.00040910,-0.00047246,0.000138
 20,-0.00040975,-0.00047222,-0.00014138,-0.00415604,-0.00085932,-0.0000
 2175,-0.09824130,0.09942120,0.00010448,-0.00575918,-0.00227898,-0.0000
 1181,-0.00919360,0.03229145,0.00004142,0.00071804,-0.00043671,0.000003
 06,-0.00003483,0.00177508,0.00000169,0.00027235,0.00003163,0.00000059,
 -0.00100110,0.00003589,-0.00088777,0.00010838,0.00011693,0.00006864,0.
 00005982,0.00020284,0.00006210,0.00010828,0.00011691,-0.00006805,-0.00
 100389,0.00003310,0.00088626,0.00006027,0.00020409,-0.00006085,0.10057
 545,-0.00003316,-0.00271334,0.00000144,0.00061115,0.00152934,0.0000063
 3,0.00161004,-0.00044885,0.00001232,0.01058474,-0.01871262,-0.00003654
 ,0.00008358,-0.00018517,-0.00001080,0.00008117,-0.00018631,0.00000943,
 -0.00335962,0.00104262,-0.00002589,0.10172149,-0.28820670,-0.00030823,
 -0.00000557,0.00106965,-0.00000182,-0.00265007,-0.00096651,-0.00000876
 ,-0.00048879,0.00008684,0.00000392,-0.00009554,-0.00003253,-0.00000116
 ,-0.00013207,0.00011923,0.00000051,-0.00018369,0.00048024,-0.00024023,
 0.00000549,0.00006062,0.00005888,0.00005310,0.00021935,-0.00009789,0.0
 0000547,0.00006065,-0.00005877,-0.00018794,0.00047977,0.00024310,0.000
 05334,0.00022080,0.00009939,-0.10783593,0.30614006,0.00000310,-0.00000
 494,-0.00282870,0.00000787,0.00000386,-0.00169450,0.00001066,0.0000112
 9,-0.00661790,0.00002401,-0.00006679,0.00843980,-0.00057855,-0.0003434
 7,0.00020520,0.00057764,0.00034155,0.00020774,-0.00002545,-0.00002116,
 0.01401837,0.00010615,-0.00030736,-0.03777648,-0.00000864,-0.00000253,
 0.00198715,-0.00001887,0.00002554,0.00262036,0.00000338,0.00000330,-0.
 00265708,-0.00000095,0.00000056,0.00058064,0.00000023,0.00000070,-0.00
 025764,-0.00106052,0.00021968,-0.00043529,-0.00010001,-0.00009163,0.00
 002865,0.00015163,0.00057260,-0.00016656,0.00010014,0.00009185,0.00002
 902,0.00105802,-0.00021647,-0.00043131,-0.00015092,-0.00057085,-0.0001
 6879,-0.00009881,0.00035450,0.02492805,0.00361581,-0.00245239,0.000003
 65,0.00076442,-0.00215698,0.00000086,0.00018966,0.00138197,0.00000183,
 -0.00588249,-0.00213331,-0.00001423,-0.00026182,-0.00001029,0.00015181
 ,-0.00026108,-0.00000966,-0.00015247,-0.00905262,0.03183122,0.00003223
 ,0.00073537,-0.00038244,0.00000419,0.01149399,-0.01816502,-0.00002228,
 -0.00406145,-0.00084175,-0.00002578,-0.09924346,0.10248423,0.00006477,
 0.00137610,-0.00133557,0.00001188,0.00006164,-0.00003023,0.00000004,0.
 00001168,0.00001503,-0.00000729,0.00001811,-0.00000449,-0.00002366,-0.
 00006162,0.00004745,-0.00009338,0.00001802,-0.00000454,0.00002376,0.00
 001165,0.00001499,0.00000742,-0.00006176,0.00004707,0.00009330,0.00013
 584,0.00007898,0.00000027,0.10102069,0.00060061,0.00151743,0.00000488,
 -0.00003879,-0.00266862,-0.00000090,-0.00023593,-0.00003038,-0.0000014
 9,0.00001529,0.00101410,-0.00000081,0.00004752,0.00001761,-0.00004250,
 0.00004799,0.00001750,0.00004270,-0.00281704,-0.00067690,-0.00000804,-
 0.00049681,0.00009173,0.00000393,0.01176762,-0.01856041,-0.00002238,-0
 .00347892,0.00100816,-0.00002315,0.10316532,-0.29027130,-0.00023666,0.
 00160964,0.00093820,0.00001536,0.00000778,0.00006275,0.00000012,-0.000
 01038,-0.00000108,-0.00000201,-0.00000399,0.00000324,0.00000249,0.0000
 1410,-0.00001203,0.00001883,-0.00000398,0.00000327,-0.00000244,-0.0000
 1040,-0.00000111,0.00000204,0.00001421,-0.00001205,-0.00001900,0.00007
 819,-0.00010332,-0.00000025,-0.10896598,0.30721503,0.00000688,-0.00000
 031,-0.00164878,0.00000496,-0.00000185,-0.00259518,-0.00000091,0.00000
 071,0.00080290,-0.00001077,-0.00000583,0.00185666,0.00019959,0.0000164
 8,-0.00000868,-0.00020021,-0.00001641,-0.00000946,-0.00001918,0.000044
 57,0.00213959,0.00000384,0.00000406,-0.00277216,0.00002302,-0.00006394
 ,0.00809562,-0.00002961,-0.00002148,0.01366926,0.00006694,-0.00023933,
 -0.03716388,0.00001463,0.00001078,-0.00795045,0.00000015,0.00000006,-0
 .00000737,-0.00000683,-0.00000581,-0.00001643,-0.00000146,0.00000649,-
 0.00001806,0.00002335,-0.00002904,0.00005154,0.00000155,-0.00000643,-0
 .00001804,0.00000688,0.00000590,-0.00001637,-0.00002362,0.00002897,0.0
 0005178,0.00000036,0.00000009,0.00000043,-0.00005569,0.00027171,0.0247
 2817,-0.00093925,-0.00007219,0.00063150,0.00094494,0.00101911,-0.00035
 352,0.00004011,0.00006457,-0.00002001,-0.00023520,0.00025040,0.0003297
 3,-0.00001455,0.00000947,0.00001797,0.00000252,0.00001750,0.00000428,0
 .00128436,-0.00124690,-0.00286800,-0.00002167,-0.00007559,0.00006328,-
 0.01327116,-0.01794150,0.02783025,-0.00071830,-0.00156876,-0.00044057,
 -0.00404765,0.00213002,-0.00131789,-0.07532432,-0.04271323,0.07537117,
 0.00004327,-0.00001741,0.00000563,-0.00000049,0.00000861,-0.00000123,-
 0.00000293,-0.00000834,-0.00000249,-0.00000437,0.00000053,-0.00000816,
 0.00000095,-0.00000450,-0.00000944,-0.00000089,0.00000841,0.00000100,-
 0.00000863,-0.00000170,0.00000104,0.00004471,0.00003953,-0.00009438,-0
 .00009030,-0.00002433,0.00115631,0.08494786,0.00025000,-0.00004868,-0.
 00003676,0.00006365,-0.00028908,0.00009299,-0.00001618,-0.00000332,0.0
 0002655,0.00012110,-0.00020543,0.00005050,-0.00000648,-0.00000508,0.00
 002114,-0.00002028,-0.00001247,-0.00001911,-0.00118672,0.00045260,-0.0
 0014009,-0.00013341,0.00001117,-0.00008547,-0.00448050,-0.00119147,-0.
 00141912,0.00083431,-0.00040706,-0.00015342,0.00072624,0.00095489,0.00
 012057,-0.04075120,-0.10795474,0.10717261,-0.00002460,-0.00000016,0.00
 000500,0.00000323,-0.00000322,0.00000273,0.00000174,-0.00000142,-0.000
 00661,-0.00000389,0.00000329,-0.00000601,0.00000311,0.00000034,0.00000
 031,0.00000464,-0.00000409,-0.00000108,-0.00000501,0.00000378,0.000007
 30,-0.00004223,0.00001260,0.00000302,0.00011100,0.00014774,0.00032682,
 0.04954809,0.11339091,0.00002095,-0.00011234,0.00017478,-0.00133658,-0
 .00024724,0.00017204,-0.00000662,-0.00001586,0.00000318,-0.00000035,-0
 .00002683,0.00005854,-0.00000553,-0.00000338,0.00001377,-0.00000782,-0
 .00000210,-0.00001037,-0.00024813,0.00011483,-0.00066827,-0.00008883,-
 0.00028027,-0.00003923,-0.00023605,-0.00191814,0.00227788,0.00106633,0
 .00161271,0.00033816,-0.00057649,-0.00065500,-0.00038991,0.07470422,0.
 10652896,-0.21456203,-0.00001358,0.00000215,0.00000145,0.00000049,-0.0
 0000032,-0.00000018,-0.00000038,-0.00000122,-0.00000188,-0.00000083,0.
 00000292,-0.00000459,0.00000019,-0.00000122,0.00000156,-0.00000036,-0.
 00000031,-0.00000078,-0.00000202,0.00000217,0.00000495,0.00003909,-0.0
 0000179,-0.00000161,-0.00003012,-0.00006119,0.00027447,-0.08074905,-0.
 11588637,0.23208954,-0.00093867,-0.00007140,-0.00063400,0.00094076,0.0
 0101819,0.00035930,0.00003997,0.00006443,0.00002029,-0.00023455,0.0002
 5135,-0.00032940,0.00000253,0.00001751,-0.00000418,-0.00001452,0.00000
 952,-0.00001801,0.00127650,-0.00125495,0.00286865,-0.00002183,-0.00007
 584,-0.00006322,-0.01319614,-0.01786651,-0.02792343,-0.00071717,-0.001
 56782,0.00043236,-0.00405393,0.00212501,0.00131314,-0.07492421,-0.0422
 1172,-0.07511665,0.00004326,-0.00001738,-0.00000556,-0.00000088,0.0000
 0841,-0.00000096,0.00000093,-0.00000452,0.00000941,-0.00000862,-0.0000
 0170,-0.00000108,-0.00000295,-0.00000837,0.00000245,-0.00000049,0.0000
 0861,0.00000125,-0.00000438,0.00000051,0.00000816,0.00004451,0.0000392
 1,0.00009448,-0.00008684,-0.00002105,-0.00115733,0.00385710,0.00582360
 ,0.00922050,0.08451844,0.00024983,-0.00004915,0.00003686,0.00006116,-0
 .00029045,-0.00009370,-0.00001609,-0.00000323,-0.00002659,0.00012110,-
 0.00020534,-0.00005095,-0.00002037,-0.00001255,0.00001906,-0.00000646,
 -0.00000501,-0.00002121,-0.00118752,0.00045237,0.00014003,-0.00013382,
 0.00001011,0.00008491,-0.00448646,-0.00120150,0.00139689,0.00083723,-0
 .00040274,0.00015391,0.00072479,0.00095371,-0.00011542,-0.04025090,-0.
 10734834,-0.10697489,-0.00002462,-0.00000015,-0.00000507,0.00000463,-0
 .00000410,0.00000107,0.00000312,0.00000033,-0.00000029,-0.00000501,0.0
 0000382,-0.00000731,0.00000172,-0.00000145,0.00000662,0.00000324,-0.00
 000321,-0.00000274,-0.00000391,0.00000327,0.00000603,-0.00004212,0.000
 01261,-0.00000302,0.00011180,0.00014867,-0.00032654,0.00581526,0.00689
 151,0.01305205,0.04900725,0.11273378,-0.00002329,0.00011156,0.00017332
 ,0.00133936,0.00024858,0.00017709,0.00000671,0.00001602,0.00000325,-0.
 00000005,0.00002678,0.00005747,0.00000780,0.00000216,-0.00001030,0.000
 00544,0.00000335,0.00001369,0.00025030,-0.00011516,-0.00065956,0.00008
 848,0.00028041,-0.00003808,0.00018085,0.00185985,0.00221344,-0.0010668
 4,-0.00161938,0.00033176,0.00056885,0.00066453,-0.00038297,-0.07444580
 ,-0.10633549,-0.21557428,0.00001364,-0.00000222,0.00000144,0.00000038,
 0.00000033,-0.00000078,-0.00000019,0.00000120,0.00000159,0.00000197,-0
 .00000218,0.00000492,0.00000039,0.00000120,-0.00000186,-0.00000048,0.0
 0000034,-0.00000018,0.00000082,-0.00000289,-0.00000457,-0.00003909,0.0
 0000194,-0.00000143,0.00002939,0.00006074,0.00027063,-0.00913699,-0.01
 295620,-0.02122851,0.08049451,0.11567721,0.23318334,0.00011624,-0.0001
 1094,-0.00000036,0.00145617,-0.00056927,0.00000085,0.00001420,-0.00008
 326,-0.00000022,0.00046040,0.00004432,0.00000055,-0.00001522,0.0000022
 1,0.00001641,-0.00001511,0.00000228,-0.00001645,0.00011199,-0.00001694
 ,0.00000117,-0.00028268,0.00188495,0.00000251,-0.01264778,0.03324041,0
 .00003185,-0.00648810,-0.00260111,-0.00001488,0.00166552,0.00125941,0.
 00000526,-0.07959143,0.08684709,0.00008004,-0.00003741,-0.00000002,-0.
 00000006,0.00001158,-0.00001405,0.00000960,0.00000350,-0.00000460,-0.0
 0000087,-0.00001199,-0.00000140,-0.00000510,0.00000348,-0.00000460,0.0
 0000087,0.00001160,-0.00001401,-0.00000962,-0.00001199,-0.00000142,0.0
 0000506,-0.00054111,0.00000508,-0.00000048,-0.00038955,-0.00126067,-0.
 00000284,0.00351387,-0.01082019,-0.00174902,0.00348118,-0.01076386,0.0
 0172384,0.08918265,0.00019341,0.00016392,0.00000041,0.00115343,0.00032
 486,0.00000175,0.00000391,0.00000420,-0.00000005,-0.00016232,0.0001232
 9,0.00000008,0.00001854,0.00000417,-0.00002540,0.00001851,0.00000409,0
 .00002544,-0.00010927,0.00010508,0.00000051,-0.00004237,0.00006442,-0.
 00000009,-0.00187856,0.00150197,0.00000166,-0.00169757,-0.00023346,-0.
 00000472,-0.00107566,0.00085418,0.00000036,0.09072224,-0.28680015,-0.0
 0022192,0.00000704,0.00000406,0.,-0.00000676,0.00000106,0.00000045,-0.
 00000662,0.00000320,-0.00000252,0.00001513,-0.00000677,0.00000735,-0.0
 0000664,0.00000320,0.00000253,-0.00000676,0.00000106,-0.00000045,0.000
 01515,-0.00000675,-0.00000734,0.00000506,0.00002096,0.00000004,0.00036
 890,0.00015176,0.00000035,0.00476298,-0.01174260,-0.00210220,0.0047276
 3,-0.01168295,0.00207732,-0.09701939,0.30713720,0.00000042,0.00000007,
 0.00004620,0.00000395,-0.00000063,0.00026972,0.,-0.00000016,0.00003338
 ,0.00000049,0.00000038,-0.00005098,0.00001108,0.00000370,0.00000462,-0
 .00001108,-0.00000370,0.00000461,0.00000038,0.00000053,-0.00027839,-0.
 00000059,0.00000262,0.00010399,-0.00001737,0.00004944,-0.00149170,-0.0
 0001326,-0.00000693,0.00141788,0.00000153,0.00000357,-0.00061905,0.000
 08495,-0.00022712,-0.04667366,-0.00000005,-0.00000001,0.00000944,-0.00
 000075,-0.00000060,-0.00000150,-0.00000187,0.00000123,-0.00000343,0.00
 000179,-0.00000143,0.00000086,0.00000186,-0.00000122,-0.00000343,0.000
 00077,0.00000056,-0.00000152,-0.00000178,0.00000140,0.00000085,-0.0000
 0076,0.00000005,-0.00000811,-0.00000049,-0.00000198,0.00028382,-0.0104
 1044,0.02288068,0.00149707,0.01042934,-0.02294689,0.00147059,-0.000078
 12,0.00024643,0.04398873\\0.00000901,0.00004314,-0.00004038,-0.0000176
 6,-0.00001982,-0.00002264,0.00000239,0.00001753,-0.00000119,-0.0000248
 6,-0.00002286,-0.00004085,0.00001456,-0.00000541,0.00002069,0.00001061
 ,-0.00000432,-0.00001595,-0.00000551,-0.00001916,0.00011473,0.00001824
 ,0.00000698,-0.00002248,0.00002900,0.00000413,-0.00002596,0.00002554,0
 .00000939,0.00006022,-0.00001963,-0.00001047,-0.00003891,-0.00001524,0
 .00003249,0.00000790,-0.00000407,-0.00000011,-0.00000020,-0.00000235,-
 0.00000193,-0.00000018,-0.00000086,-0.00000438,-0.00000714,-0.00001037
 ,0.00000089,-0.00000538,0.00000051,-0.00000366,0.00000594,-0.00000187,
 -0.00000226,-0.00000092,-0.00000946,0.00000026,0.00000581,-0.00000328,
 0.00000379,0.00000561,0.00000298,-0.00000090,0.00000194,-0.00000248,-0
 .00000715,-0.00000032,0.00000059,-0.00000711,0.00000005,0.00000419,-0.
 00000907,-0.00000038\\\@


 ... THIS SEEMS PLAINLY ABSURD; BUT WHOEVER WISHES TO BECOME A 
 PHILOSOPHER MUST LEARN NOT TO BE FRIGHTENED BY ABSURDITIES.

                          -- BERTRAND RUSSELL
 Job cpu time:       0 days  2 hours 59 minutes 44.7 seconds.
 Elapsed time:       0 days  0 hours 11 minutes 17.0 seconds.
 File lengths (MBytes):  RWF=    259 Int=      0 D2E=      0 Chk=     11 Scr=      1
 Normal termination of Gaussian 16 at Wed Oct 15 16:17:42 2025.
