 Entering Gaussian System, Link 0=g16
 Input=TRAN0166.gjf
 Output=TRAN0166.log
 Initial command:
 /usr/local/g16/l1.exe "/dados_01/scratch/Gau-2305241.inp" -scrdir="/dados_01/scratch/"
 Entering Link 1 = /usr/local/g16/l1.exe PID=   2305242.
  
 Copyright (c) 1988-2017, Gaussian, Inc.  All Rights Reserved.
  
 This is part of the Gaussian(R) 16 program.  It is based on
 the Gaussian(R) 09 system (copyright 2009, Gaussian, Inc.),
 the Gaussian(R) 03 system (copyright 2003, Gaussian, Inc.),
 the Gaussian(R) 98 system (copyright 1998, Gaussian, Inc.),
 the Gaussian(R) 94 system (copyright 1995, Gaussian, Inc.),
 the Gaussian 92(TM) system (copyright 1992, Gaussian, Inc.),
 the Gaussian 90(TM) system (copyright 1990, Gaussian, Inc.),
 the Gaussian 88(TM) system (copyright 1988, Gaussian, Inc.),
 the Gaussian 86(TM) system (copyright 1986, Carnegie Mellon
 University), and the Gaussian 82(TM) system (copyright 1983,
 Carnegie Mellon University). Gaussian is a federally registered
 trademark of Gaussian, Inc.
  
 This software contains proprietary and confidential information,
 including trade secrets, belonging to Gaussian, Inc.
  
 This software is provided under written license and may be
 used, copied, transmitted, or stored only in accord with that
 written license.
  
 The following legend is applicable only to US Government
 contracts under FAR:
  
                    RESTRICTED RIGHTS LEGEND
  
 Use, reproduction and disclosure by the US Government is
 subject to restrictions as set forth in subparagraphs (a)
 and (c) of the Commercial Computer Software - Restricted
 Rights clause in FAR 52.227-19.
  
 Gaussian, Inc.
 340 Quinnipiac St., Bldg. 40, Wallingford CT 06492
  
  
 ---------------------------------------------------------------
 Warning -- This program may not be used in any manner that
 competes with the business of Gaussian, Inc. or will provide
 assistance to any competitor of Gaussian, Inc.  The licensee
 of this program is prohibited from giving any competitor of
 Gaussian, Inc. access to this program.  By using this program,
 the user acknowledges that Gaussian, Inc. is engaged in the
 business of creating and licensing software in the field of
 computational chemistry and represents and warrants to the
 licensee that it is not a competitor of Gaussian, Inc. and that
 it will not use this program in any manner prohibited above.
 ---------------------------------------------------------------
  

 Cite this work as:
 Gaussian 16, Revision B.01,
 M. J. Frisch, G. W. Trucks, H. B. Schlegel, G. E. Scuseria, 
 M. A. Robb, J. R. Cheeseman, G. Scalmani, V. Barone, 
 G. A. Petersson, H. Nakatsuji, X. Li, M. Caricato, A. V. Marenich, 
 J. Bloino, B. G. Janesko, R. Gomperts, B. Mennucci, H. P. Hratchian, 
 J. V. Ortiz, A. F. Izmaylov, J. L. Sonnenberg, D. Williams-Young, 
 F. Ding, F. Lipparini, F. Egidi, J. Goings, B. Peng, A. Petrone, 
 T. Henderson, D. Ranasinghe, V. G. Zakrzewski, J. Gao, N. Rega, 
 G. Zheng, W. Liang, M. Hada, M. Ehara, K. Toyota, R. Fukuda, 
 J. Hasegawa, M. Ishida, T. Nakajima, Y. Honda, O. Kitao, H. Nakai, 
 T. Vreven, K. Throssell, J. A. Montgomery, Jr., J. E. Peralta, 
 F. Ogliaro, M. J. Bearpark, J. J. Heyd, E. N. Brothers, K. N. Kudin, 
 V. N. Staroverov, T. A. Keith, R. Kobayashi, J. Normand, 
 K. Raghavachari, A. P. Rendell, J. C. Burant, S. S. Iyengar, 
 J. Tomasi, M. Cossi, J. M. Millam, M. Klene, C. Adamo, R. Cammi, 
 J. W. Ochterski, R. L. Martin, K. Morokuma, O. Farkas, 
 J. B. Foresman, and D. J. Fox, Gaussian, Inc., Wallingford CT, 2016.
 
 ******************************************
 Gaussian 16:  ES64L-G16RevB.01 20-Dec-2017
                27-Sep-2025 
 ******************************************
 %nprocs=16
 Will use up to   16 processors via shared memory.
 %mem=40GB
 %chk=TRAN0166.chk
 ----------------------------------------------------------------------
 # opt freq=noraman M08HX/6-311++G** scf=xqc Empiricaldispersion=pfd In
 t(Grid=ultraFine)
 ----------------------------------------------------------------------
 1/18=20,19=15,26=4,38=1/1,3;
 2/9=110,12=2,17=6,18=5,40=1/2;
 3/5=4,6=6,7=1111,11=2,25=1,30=1,71=1,74=-74,75=-5,124=11/1,2,3;
 4//1;
 5/5=2,8=3,13=1,38=5/2,8;
 6/7=2,8=2,9=2,10=2,28=1/1;
 7//1,2,3,16;
 1/18=20,19=15,26=4/3(2);
 2/9=110/2;
 99//99;
 2/9=110/2;
 3/5=4,6=6,7=1111,11=2,25=1,30=1,71=1,74=-74,75=-5,124=11/1,2,3;
 4/5=5,16=3,69=1/1;
 5/5=2,8=3,13=1,38=5/2,8;
 7//1,2,3,16;
 1/18=20,19=15,26=4/3(-5);
 2/9=110/2;
 6/7=2,8=2,9=2,10=2,19=2,28=1/1;
 99/9=1/99;
 --------
 TRAN0166
 --------
 Symbolic Z-matrix:
 Charge =  0 Multiplicity = 1
 C                    -2.4812   -0.6809    0.3414 
 C                    -2.4812    0.6809   -0.3412 
 C                    -1.2568   -1.4903   -0.0824 
 C                    -1.2569    1.4903    0.0821 
 C                     0.0284   -0.7034   -0.0185 
 C                     0.0285    0.7034    0.0185 
 C                     1.2508   -1.3913   -0.0551 
 C                     1.2508    1.3913    0.0553 
 C                     2.4588   -0.6952   -0.0288 
 C                     2.4588    0.6953    0.0288 
 H                    -3.3929   -1.2323    0.086 
 H                    -2.4812   -0.5458    1.4305 
 H                    -3.393     1.2324   -0.0856 
 H                    -2.4816    0.5457   -1.4303 
 H                    -1.3917   -1.8368   -1.1147 
 H                    -1.1834   -2.3777    0.5577 
 H                    -1.3917    1.8372    1.1143 
 H                    -1.1835    2.3775   -0.5584 
 H                     1.2665   -2.4775   -0.1043 
 H                     1.2663    2.4775    0.1044 
 H                     3.399    -1.2384   -0.0534 
 H                     3.399     1.2384    0.0534 
 

 GradGradGradGradGradGradGradGradGradGradGradGradGradGradGradGradGradGrad
 Berny optimization.
 Initialization pass.
                           ----------------------------
                           !    Initial Parameters    !
                           ! (Angstroms and Degrees)  !
 --------------------------                            --------------------------
 ! Name  Definition              Value          Derivative Info.                !
 --------------------------------------------------------------------------------
 ! R1    R(1,2)                  1.5233         estimate D2E/DX2                !
 ! R2    R(1,3)                  1.5277         estimate D2E/DX2                !
 ! R3    R(1,11)                 1.0957         estimate D2E/DX2                !
 ! R4    R(1,12)                 1.0974         estimate D2E/DX2                !
 ! R5    R(2,4)                  1.5275         estimate D2E/DX2                !
 ! R6    R(2,13)                 1.0958         estimate D2E/DX2                !
 ! R7    R(2,14)                 1.0975         estimate D2E/DX2                !
 ! R8    R(3,5)                  1.5083         estimate D2E/DX2                !
 ! R9    R(3,15)                 1.0972         estimate D2E/DX2                !
 ! R10   R(3,16)                 1.0966         estimate D2E/DX2                !
 ! R11   R(4,6)                  1.5085         estimate D2E/DX2                !
 ! R12   R(4,17)                 1.0972         estimate D2E/DX2                !
 ! R13   R(4,18)                 1.0967         estimate D2E/DX2                !
 ! R14   R(5,6)                  1.4073         estimate D2E/DX2                !
 ! R15   R(5,7)                  1.4031         estimate D2E/DX2                !
 ! R16   R(6,8)                  1.4031         estimate D2E/DX2                !
 ! R17   R(7,9)                  1.3945         estimate D2E/DX2                !
 ! R18   R(7,19)                 1.0874         estimate D2E/DX2                !
 ! R19   R(8,10)                 1.3944         estimate D2E/DX2                !
 ! R20   R(8,20)                 1.0874         estimate D2E/DX2                !
 ! R21   R(9,10)                 1.3917         estimate D2E/DX2                !
 ! R22   R(9,21)                 1.0861         estimate D2E/DX2                !
 ! R23   R(10,22)                1.0861         estimate D2E/DX2                !
 ! A1    A(2,1,3)              110.4466         estimate D2E/DX2                !
 ! A2    A(2,1,11)             110.2092         estimate D2E/DX2                !
 ! A3    A(2,1,12)             109.551          estimate D2E/DX2                !
 ! A4    A(3,1,11)             109.6091         estimate D2E/DX2                !
 ! A5    A(3,1,12)             109.9086         estimate D2E/DX2                !
 ! A6    A(11,1,12)            107.0545         estimate D2E/DX2                !
 ! A7    A(1,2,4)              110.4586         estimate D2E/DX2                !
 ! A8    A(1,2,13)             110.2057         estimate D2E/DX2                !
 ! A9    A(1,2,14)             109.5458         estimate D2E/DX2                !
 ! A10   A(4,2,13)             109.6084         estimate D2E/DX2                !
 ! A11   A(4,2,14)             109.9123         estimate D2E/DX2                !
 ! A12   A(13,2,14)            107.0476         estimate D2E/DX2                !
 ! A13   A(1,3,5)              113.2501         estimate D2E/DX2                !
 ! A14   A(1,3,15)             109.2548         estimate D2E/DX2                !
 ! A15   A(1,3,16)             108.6901         estimate D2E/DX2                !
 ! A16   A(5,3,15)             108.0213         estimate D2E/DX2                !
 ! A17   A(5,3,16)             109.9018         estimate D2E/DX2                !
 ! A18   A(15,3,16)            107.5684         estimate D2E/DX2                !
 ! A19   A(2,4,6)              113.2585         estimate D2E/DX2                !
 ! A20   A(2,4,17)             109.2538         estimate D2E/DX2                !
 ! A21   A(2,4,18)             108.691          estimate D2E/DX2                !
 ! A22   A(6,4,17)             108.0153         estimate D2E/DX2                !
 ! A23   A(6,4,18)             109.898          estimate D2E/DX2                !
 ! A24   A(17,4,18)            107.5696         estimate D2E/DX2                !
 ! A25   A(3,5,6)              121.5135         estimate D2E/DX2                !
 ! A26   A(3,5,7)              119.0413         estimate D2E/DX2                !
 ! A27   A(6,5,7)              119.3873         estimate D2E/DX2                !
 ! A28   A(4,6,5)              121.5014         estimate D2E/DX2                !
 ! A29   A(4,6,8)              119.0434         estimate D2E/DX2                !
 ! A30   A(5,6,8)              119.3976         estimate D2E/DX2                !
 ! A31   A(5,7,9)              120.6289         estimate D2E/DX2                !
 ! A32   A(5,7,19)             120.2293         estimate D2E/DX2                !
 ! A33   A(9,7,19)             119.1418         estimate D2E/DX2                !
 ! A34   A(6,8,10)             120.6298         estimate D2E/DX2                !
 ! A35   A(6,8,20)             120.221          estimate D2E/DX2                !
 ! A36   A(10,8,20)            119.1492         estimate D2E/DX2                !
 ! A37   A(7,9,10)             119.9698         estimate D2E/DX2                !
 ! A38   A(7,9,21)             119.9879         estimate D2E/DX2                !
 ! A39   A(10,9,21)            120.0423         estimate D2E/DX2                !
 ! A40   A(8,10,9)             119.9666         estimate D2E/DX2                !
 ! A41   A(8,10,22)            119.9957         estimate D2E/DX2                !
 ! A42   A(9,10,22)            120.0378         estimate D2E/DX2                !
 ! D1    D(3,1,2,4)            -62.3897         estimate D2E/DX2                !
 ! D2    D(3,1,2,13)           176.3469         estimate D2E/DX2                !
 ! D3    D(3,1,2,14)            58.8207         estimate D2E/DX2                !
 ! D4    D(11,1,2,4)           176.3517         estimate D2E/DX2                !
 ! D5    D(11,1,2,13)           55.0883         estimate D2E/DX2                !
 ! D6    D(11,1,2,14)          -62.4379         estimate D2E/DX2                !
 ! D7    D(12,1,2,4)            58.8118         estimate D2E/DX2                !
 ! D8    D(12,1,2,13)          -62.4516         estimate D2E/DX2                !
 ! D9    D(12,1,2,14)         -179.9778         estimate D2E/DX2                !
 ! D10   D(2,1,3,5)             47.1661         estimate D2E/DX2                !
 ! D11   D(2,1,3,15)           -73.281          estimate D2E/DX2                !
 ! D12   D(2,1,3,16)           169.6092         estimate D2E/DX2                !
 ! D13   D(11,1,3,5)           168.7803         estimate D2E/DX2                !
 ! D14   D(11,1,3,15)           48.3332         estimate D2E/DX2                !
 ! D15   D(11,1,3,16)          -68.7766         estimate D2E/DX2                !
 ! D16   D(12,1,3,5)           -73.8227         estimate D2E/DX2                !
 ! D17   D(12,1,3,15)          165.7302         estimate D2E/DX2                !
 ! D18   D(12,1,3,16)           48.6204         estimate D2E/DX2                !
 ! D19   D(1,2,4,6)             47.1434         estimate D2E/DX2                !
 ! D20   D(1,2,4,17)           -73.3008         estimate D2E/DX2                !
 ! D21   D(1,2,4,18)           169.5881         estimate D2E/DX2                !
 ! D22   D(13,2,4,6)           168.7606         estimate D2E/DX2                !
 ! D23   D(13,2,4,17)           48.3164         estimate D2E/DX2                !
 ! D24   D(13,2,4,18)          -68.7947         estimate D2E/DX2                !
 ! D25   D(14,2,4,6)           -73.8491         estimate D2E/DX2                !
 ! D26   D(14,2,4,17)          165.7067         estimate D2E/DX2                !
 ! D27   D(14,2,4,18)           48.5955         estimate D2E/DX2                !
 ! D28   D(1,3,5,6)            -18.4092         estimate D2E/DX2                !
 ! D29   D(1,3,5,7)            164.3732         estimate D2E/DX2                !
 ! D30   D(15,3,5,6)           102.736          estimate D2E/DX2                !
 ! D31   D(15,3,5,7)           -74.4816         estimate D2E/DX2                !
 ! D32   D(16,3,5,6)          -140.1762         estimate D2E/DX2                !
 ! D33   D(16,3,5,7)            42.6062         estimate D2E/DX2                !
 ! D34   D(2,4,6,5)            -18.3788         estimate D2E/DX2                !
 ! D35   D(2,4,6,8)            164.3992         estimate D2E/DX2                !
 ! D36   D(17,4,6,5)           102.7662         estimate D2E/DX2                !
 ! D37   D(17,4,6,8)           -74.4559         estimate D2E/DX2                !
 ! D38   D(18,4,6,5)          -140.15           estimate D2E/DX2                !
 ! D39   D(18,4,6,8)            42.6279         estimate D2E/DX2                !
 ! D40   D(3,5,6,4)              3.8357         estimate D2E/DX2                !
 ! D41   D(3,5,6,8)           -178.9518         estimate D2E/DX2                !
 ! D42   D(7,5,6,4)           -178.9561         estimate D2E/DX2                !
 ! D43   D(7,5,6,8)             -1.7437         estimate D2E/DX2                !
 ! D44   D(3,5,7,9)            178.5321         estimate D2E/DX2                !
 ! D45   D(3,5,7,19)            -1.4792         estimate D2E/DX2                !
 ! D46   D(6,5,7,9)              1.2544         estimate D2E/DX2                !
 ! D47   D(6,5,7,19)          -178.7569         estimate D2E/DX2                !
 ! D48   D(4,6,8,10)           178.5552         estimate D2E/DX2                !
 ! D49   D(4,6,8,20)            -1.4814         estimate D2E/DX2                !
 ! D50   D(5,6,8,10)             1.2738         estimate D2E/DX2                !
 ! D51   D(5,6,8,20)          -178.7629         estimate D2E/DX2                !
 ! D52   D(5,7,9,10)            -0.2626         estimate D2E/DX2                !
 ! D53   D(5,7,9,21)           179.745          estimate D2E/DX2                !
 ! D54   D(19,7,9,10)          179.7485         estimate D2E/DX2                !
 ! D55   D(19,7,9,21)           -0.2439         estimate D2E/DX2                !
 ! D56   D(6,8,10,9)            -0.2819         estimate D2E/DX2                !
 ! D57   D(6,8,10,22)          179.7356         estimate D2E/DX2                !
 ! D58   D(20,8,10,9)          179.7543         estimate D2E/DX2                !
 ! D59   D(20,8,10,22)          -0.2281         estimate D2E/DX2                !
 ! D60   D(7,9,10,8)            -0.2306         estimate D2E/DX2                !
 ! D61   D(7,9,10,22)          179.7518         estimate D2E/DX2                !
 ! D62   D(21,9,10,8)          179.7618         estimate D2E/DX2                !
 ! D63   D(21,9,10,22)          -0.2558         estimate D2E/DX2                !
 --------------------------------------------------------------------------------
 Trust Radius=3.00D-01 FncErr=1.00D-07 GrdErr=1.00D-06 EigMax=2.50D+02 EigMin=1.00D-04
 Number of steps in this run=    132 maximum allowed number of steps=    132.
 GradGradGradGradGradGradGradGradGradGradGradGradGradGradGradGradGradGrad

                          Input orientation:                          
 ---------------------------------------------------------------------
 Center     Atomic      Atomic             Coordinates (Angstroms)
 Number     Number       Type             X           Y           Z
 ---------------------------------------------------------------------
      1          6           0       -2.481200   -0.680900    0.341400
      2          6           0       -2.481200    0.680900   -0.341200
      3          6           0       -1.256800   -1.490300   -0.082400
      4          6           0       -1.256900    1.490300    0.082100
      5          6           0        0.028400   -0.703400   -0.018500
      6          6           0        0.028500    0.703400    0.018500
      7          6           0        1.250800   -1.391300   -0.055100
      8          6           0        1.250800    1.391300    0.055300
      9          6           0        2.458800   -0.695200   -0.028800
     10          6           0        2.458800    0.695300    0.028800
     11          1           0       -3.392900   -1.232300    0.086000
     12          1           0       -2.481200   -0.545800    1.430500
     13          1           0       -3.393000    1.232400   -0.085600
     14          1           0       -2.481600    0.545700   -1.430300
     15          1           0       -1.391700   -1.836800   -1.114700
     16          1           0       -1.183400   -2.377700    0.557700
     17          1           0       -1.391700    1.837200    1.114300
     18          1           0       -1.183500    2.377500   -0.558400
     19          1           0        1.266500   -2.477500   -0.104300
     20          1           0        1.266300    2.477500    0.104400
     21          1           0        3.399000   -1.238400   -0.053400
     22          1           0        3.399000    1.238400    0.053400
 ---------------------------------------------------------------------
                    Distance matrix (angstroms):
                    1          2          3          4          5
     1  C    0.000000
     2  C    1.523300   0.000000
     3  C    1.527707   2.506041   0.000000
     4  C    2.506044   1.527489   2.985136   0.000000
     5  C    2.535375   2.884183   1.508322   2.544491   0.000000
     6  C    2.884293   2.535446   2.544503   1.508479   1.407286
     7  C    3.819647   4.278281   2.509702   3.822434   1.403142
     8  C    4.278281   3.819647   3.822386   2.509797   2.426412
     9  C    4.953872   5.137591   3.800097   4.312208   2.430436
    10  C    5.137630   4.953858   4.312180   3.800170   2.804540
    11  H    1.095659   2.161951   2.158204   3.460500   3.463517
    12  H    1.097447   2.154928   2.163354   2.731812   2.902160
    13  H    2.162042   1.095839   3.460702   2.158138   3.931641
    14  H    2.154871   1.097460   2.731715   2.163218   3.139033
    15  H    2.154842   2.850285   1.097225   3.538375   2.122012
    16  H    2.147138   3.441997   1.096629   3.897823   2.145634
    17  H    2.850476   2.154651   3.538721   1.097245   3.123230
    18  H    3.442016   2.147010   3.897669   1.096700   3.354421
    19  H    4.179913   4.906818   2.709628   4.705925   2.165106
    20  H    4.906671   4.179723   4.705780   2.709539   3.415498
    21  H    5.919749   6.192196   4.662700   5.398293   3.412973
    22  H    6.192205   5.919735   5.398214   4.662798   3.890591
                    6          7          8          9         10
     6  C    0.000000
     7  C    2.426356   0.000000
     8  C    1.403060   2.784789   0.000000
     9  C    2.804403   1.394457   2.412430   0.000000
    10  C    2.430335   2.412510   1.394411   1.391692   0.000000
    11  H    3.931599   4.648563   5.333683   5.877419   6.161275
    12  H    3.138923   4.104839   4.423952   5.153201   5.282868
    13  H    3.463718   5.333818   4.648654   6.161366   5.877510
    14  H    2.902498   4.424246   4.105223   5.283142   5.153533
    15  H    3.123096   2.881671   4.332705   4.160382   4.748207
    16  H    3.354492   2.697005   4.514764   4.054677   4.794652
    17  H    2.122086   4.332841   2.881512   4.748271   4.160360
    18  H    2.145779   4.514751   2.697227   4.794613   4.054744
    19  H    3.415531   1.087427   3.872122   2.145664   3.392043
    20  H    2.164938   3.872118   1.087420   3.392024   2.145695
    21  H    3.890505   2.153635   3.397337   1.086116   2.151727
    22  H    3.412875   3.397331   2.153635   2.151637   1.086066
                   11         12         13         14         15
    11  H    0.000000
    12  H    1.763564   0.000000
    13  H    2.470666   2.508373   0.000000
    14  H    2.508170   3.061952   1.763640   0.000000
    15  H    2.410789   3.054789   3.805816   2.638900   0.000000
    16  H    2.533048   2.408718   4.281237   3.766130   1.769995
    17  H    3.805789   2.639258   2.410549   3.054643   4.297292
    18  H    4.281046   3.766355   2.533117   2.408478   4.255954
    19  H    4.826670   4.486907   5.956060   4.994624   2.915035
    20  H    5.955762   4.994261   4.826536   4.487083   5.211943
    21  H    6.793333   6.103966   7.227527   6.297644   4.943202
    22  H    7.227401   6.297343   6.793425   6.104314   5.811378
                   16         17         18         19         20
    16  H    0.000000
    17  H    4.256592   0.000000
    18  H    4.884425   1.770084   0.000000
    19  H    2.539727   5.212260   5.457081   0.000000
    20  H    5.457058   2.914592   2.539847   4.959393   0.000000
    21  H    4.761285   5.811510   5.859101   2.466884   4.287333
    22  H    5.859086   4.943165   4.761424   4.287230   2.467059
                   21         22
    21  H    0.000000
    22  H    2.479102   0.000000
 Stoichiometry    C10H12
 Framework group  C1[X(C10H12)]
 Deg. of freedom    60
 Full point group                 C1      NOp   1
 Largest Abelian subgroup         C1      NOp   1
 Largest concise Abelian subgroup C1      NOp   1
                         Standard orientation:                         
 ---------------------------------------------------------------------
 Center     Atomic      Atomic             Coordinates (Angstroms)
 Number     Number       Type             X           Y           Z
 ---------------------------------------------------------------------
      1          6           0       -2.376083    0.679777   -0.343673
      2          6           0       -2.376089   -0.679742    0.343458
      3          6           0       -1.151682    1.490580    0.077434
      4          6           0       -1.151790   -1.490551   -0.077139
      5          6           0        0.133516    0.703468    0.016161
      6          6           0        0.133612   -0.703447   -0.016154
      7          6           0        1.355917    1.391483    0.050475
      8          6           0        1.355910   -1.391469   -0.050658
      9          6           0        2.563916    0.695296    0.026498
     10          6           0        2.563912   -0.695388   -0.026471
     11          1           0       -3.287782    1.232027   -0.090115
     12          1           0       -2.376079    0.541050   -1.432317
     13          1           0       -3.287890   -1.232088    0.089692
     14          1           0       -2.376494   -0.540916    1.432102
     15          1           0       -1.286586    1.840517    1.108574
     16          1           0       -1.078277    2.375844   -0.565617
     17          1           0       -1.286586   -1.840886   -1.108178
     18          1           0       -1.078395   -2.375613    0.566313
     19          1           0        1.371620    2.477841    0.096057
     20          1           0        1.371408   -2.477827   -0.096140
     21          1           0        3.504117    1.238573    0.049293
     22          1           0        3.504111   -1.238569   -0.049258
 ---------------------------------------------------------------------
 Rotational constants (GHZ):           2.7761672           1.1303305           0.8306199
 Standard basis: 6-311++G(d,p) (5D, 7F)
 There are   314 symmetry adapted cartesian basis functions of A   symmetry.
 There are   304 symmetry adapted basis functions of A   symmetry.
   304 basis functions,   468 primitive gaussians,   314 cartesian basis functions
    36 alpha electrons       36 beta electrons
       nuclear repulsion energy       503.2447635912 Hartrees.
 NAtoms=   22 NActive=   22 NUniq=   22 SFac= 1.00D+00 NAtFMM=   60 NAOKFM=F Big=F
 Integral buffers will be    131072 words long.
 Raffenetti 2 integral format.
 Two-electron integral symmetry is turned on.
 R6APFD:  NTU= -4 IXU= 1 FactS= 1.050
 Nuclear repulsion after empirical dispersion term =      503.2309156180 Hartrees.
 One-electron integrals computed using PRISM.
 NBasis=   304 RedAO= T EigKep=  1.75D-06  NBF=   304
 NBsUse=   303 1.00D-06 EigRej=  4.26D-07 NBFU=   303
 ExpMin= 3.60D-02 ExpMax= 4.56D+03 ExpMxC= 6.82D+02 IAcc=3 IRadAn=         5 AccDes= 0.00D+00
 Harris functional with IExCor= 1009 and IRadAn=       5 diagonalized for initial guess.
 HarFok:  IExCor= 1009 AccDes= 0.00D+00 IRadAn=         5 IDoV= 1 UseB2=F ITyADJ=14
 ICtDFT=  3500011 ScaDFX=  1.000000  1.000000  1.000000  1.000000
 FoFCou: FMM=F IPFlag=           0 FMFlag=      100000 FMFlg1=           0
         NFxFlg=           0 DoJE=T BraDBF=F KetDBF=T FulRan=T
         wScrn=  0.000000 ICntrl=       500 IOpCl=  0 I1Cent=   200000004 NGrid=           0
         NMat0=    1 NMatS0=      1 NMatT0=    0 NMatD0=    1 NMtDS0=    0 NMtDT0=    0
 Petite list used in FoFCou.
 Requested convergence on RMS density matrix=1.00D-08 within  32 cycles.
 Requested convergence on MAX density matrix=1.00D-06.
 Requested convergence on             energy=1.00D-06.
 No special actions if energy rises.
 SCF Done:  E(RM08HX) =  -388.316889484     A.U. after   14 cycles
            NFock= 14  Conv=0.60D-08     -V/T= 2.0055
 QCSCF skips out because SCF is already converged.

 **********************************************************************

            Population analysis using the SCF Density.

 **********************************************************************

 Orbital symmetries:
       Occupied  (A) (A) (A) (A) (A) (A) (A) (A) (A) (A) (A) (A)
                 (A) (A) (A) (A) (A) (A) (A) (A) (A) (A) (A) (A)
                 (A) (A) (A) (A) (A) (A) (A) (A) (A) (A) (A) (A)
       Virtual   (A) (A) (A) (A) (A) (A) (A) (A) (A) (A) (A) (A)
                 (A) (A) (A) (A) (A) (A) (A) (A) (A) (A) (A) (A)
                 (A) (A) (A) (A) (A) (A) (A) (A) (A) (A) (A) (A)
                 (A) (A) (A) (A) (A) (A) (A) (A) (A) (A) (A) (A)
                 (A) (A) (A) (A) (A) (A) (A) (A) (A) (A) (A) (A)
                 (A) (A) (A) (A) (A) (A) (A) (A) (A) (A) (A) (A)
                 (A) (A) (A) (A) (A) (A) (A) (A) (A) (A) (A) (A)
                 (A) (A) (A) (A) (A) (A) (A) (A) (A) (A) (A) (A)
                 (A) (A) (A) (A) (A) (A) (A) (A) (A) (A) (A) (A)
                 (A) (A) (A) (A) (A) (A) (A) (A) (A) (A) (A) (A)
                 (A) (A) (A) (A) (A) (A) (A) (A) (A) (A) (A) (A)
                 (A) (A) (A) (A) (A) (A) (A) (A) (A) (A) (A) (A)
                 (A) (A) (A) (A) (A) (A) (A) (A) (A) (A) (A) (A)
                 (A) (A) (A) (A) (A) (A) (A) (A) (A) (A) (A) (A)
                 (A) (A) (A) (A) (A) (A) (A) (A) (A) (A) (A) (A)
                 (A) (A) (A) (A) (A) (A) (A) (A) (A) (A) (A) (A)
                 (A) (A) (A) (A) (A) (A) (A) (A) (A) (A) (A) (A)
                 (A) (A) (A) (A) (A) (A) (A) (A) (A) (A) (A) (A)
                 (A) (A) (A) (A) (A) (A) (A) (A) (A) (A) (A) (A)
                 (A) (A) (A) (A) (A) (A) (A) (A) (A) (A) (A) (A)
                 (A) (A) (A) (A) (A) (A) (A) (A) (A) (A) (A) (A)
                 (A) (A) (A) (A) (A) (A) (A) (A) (A) (A) (A) (A)
                 (A) (A) (A)
 The electronic state is 1-A.
 Alpha  occ. eigenvalues --  -10.53917 -10.53844 -10.52949 -10.52935 -10.52869
 Alpha  occ. eigenvalues --  -10.52805 -10.52798 -10.52797 -10.52429 -10.52390
 Alpha  occ. eigenvalues --   -0.97697  -0.92015  -0.87327  -0.84031  -0.81383
 Alpha  occ. eigenvalues --   -0.72485  -0.69564  -0.68401  -0.62663  -0.57932
 Alpha  occ. eigenvalues --   -0.54497  -0.54433  -0.51149  -0.50451  -0.49557
 Alpha  occ. eigenvalues --   -0.47499  -0.45877  -0.45037  -0.43585  -0.41366
 Alpha  occ. eigenvalues --   -0.40936  -0.39678  -0.37396  -0.36792  -0.29921
 Alpha  occ. eigenvalues --   -0.29094
 Alpha virt. eigenvalues --   -0.02706  -0.01545  -0.01463  -0.01127   0.00377
 Alpha virt. eigenvalues --    0.00435   0.00900   0.01072   0.01850   0.02844
 Alpha virt. eigenvalues --    0.02924   0.03269   0.03436   0.05740   0.06466
 Alpha virt. eigenvalues --    0.06830   0.07186   0.07310   0.07662   0.07745
 Alpha virt. eigenvalues --    0.10727   0.10842   0.11206   0.11276   0.11599
 Alpha virt. eigenvalues --    0.11679   0.11995   0.12611   0.13022   0.13050
 Alpha virt. eigenvalues --    0.13302   0.13510   0.13688   0.14329   0.14498
 Alpha virt. eigenvalues --    0.15658   0.15882   0.16027   0.16493   0.17428
 Alpha virt. eigenvalues --    0.17961   0.18380   0.18510   0.18892   0.19146
 Alpha virt. eigenvalues --    0.20531   0.21663   0.22007   0.22943   0.23235
 Alpha virt. eigenvalues --    0.23546   0.23995   0.24786   0.25414   0.26207
 Alpha virt. eigenvalues --    0.26424   0.26977   0.27740   0.28976   0.29687
 Alpha virt. eigenvalues --    0.29967   0.31427   0.31572   0.33134   0.33287
 Alpha virt. eigenvalues --    0.33452   0.35131   0.35511   0.36365   0.36454
 Alpha virt. eigenvalues --    0.38346   0.40143   0.41500   0.42597   0.43757
 Alpha virt. eigenvalues --    0.48728   0.50832   0.51715   0.53077   0.53693
 Alpha virt. eigenvalues --    0.56437   0.56663   0.57872   0.58795   0.58928
 Alpha virt. eigenvalues --    0.59629   0.60577   0.62626   0.62912   0.64194
 Alpha virt. eigenvalues --    0.64902   0.68210   0.68355   0.68617   0.69405
 Alpha virt. eigenvalues --    0.70148   0.70156   0.72142   0.72151   0.73904
 Alpha virt. eigenvalues --    0.73978   0.75399   0.75843   0.76899   0.77018
 Alpha virt. eigenvalues --    0.78183   0.78689   0.78736   0.80766   0.81366
 Alpha virt. eigenvalues --    0.81753   0.81882   0.84572   0.88057   0.88356
 Alpha virt. eigenvalues --    0.89074   0.92315   0.93629   0.95469   0.96239
 Alpha virt. eigenvalues --    0.96284   0.97697   1.00973   1.02530   1.06679
 Alpha virt. eigenvalues --    1.07315   1.07999   1.08539   1.12473   1.15021
 Alpha virt. eigenvalues --    1.16775   1.19596   1.20963   1.23676   1.29167
 Alpha virt. eigenvalues --    1.30035   1.34181   1.39100   1.42754   1.46486
 Alpha virt. eigenvalues --    1.46509   1.48524   1.52310   1.54451   1.55828
 Alpha virt. eigenvalues --    1.56836   1.57937   1.59698   1.60398   1.61049
 Alpha virt. eigenvalues --    1.62662   1.62793   1.65458   1.65489   1.67423
 Alpha virt. eigenvalues --    1.67974   1.69259   1.69560   1.69874   1.73331
 Alpha virt. eigenvalues --    1.73559   1.76413   1.77237   1.78481   1.79906
 Alpha virt. eigenvalues --    1.81272   1.82374   1.83041   1.87145   1.87721
 Alpha virt. eigenvalues --    1.92707   1.94423   1.95726   1.97415   1.98554
 Alpha virt. eigenvalues --    1.98892   2.00776   2.00779   2.01680   2.01825
 Alpha virt. eigenvalues --    2.04146   2.05934   2.13282   2.16416   2.16740
 Alpha virt. eigenvalues --    2.19098   2.21203   2.24496   2.27056   2.29197
 Alpha virt. eigenvalues --    2.30486   2.30692   2.36572   2.36995   2.41347
 Alpha virt. eigenvalues --    2.42836   2.46075   2.47626   2.47776   2.50634
 Alpha virt. eigenvalues --    2.56061   2.56508   2.58105   2.59573   2.63729
 Alpha virt. eigenvalues --    2.65273   2.68334   2.68752   2.69638   2.70660
 Alpha virt. eigenvalues --    2.71180   2.72870   2.72897   2.74563   2.76534
 Alpha virt. eigenvalues --    2.77488   2.77936   2.79378   2.80872   2.81459
 Alpha virt. eigenvalues --    2.84337   2.85574   2.87478   2.92648   2.93217
 Alpha virt. eigenvalues --    2.93953   2.94645   2.99857   3.01947   3.05546
 Alpha virt. eigenvalues --    3.05925   3.11203   3.19861   3.25889   3.31777
 Alpha virt. eigenvalues --    3.32338   3.37624   3.45806   3.48987   3.49123
 Alpha virt. eigenvalues --    3.59831   3.61880   3.68631   3.78691   3.83215
 Alpha virt. eigenvalues --    3.84789   3.89900   3.95460   4.09189   4.11105
 Alpha virt. eigenvalues --    4.21604   4.21703   4.23335   4.27187   4.46198
 Alpha virt. eigenvalues --    4.57875   4.93330  23.63706  23.92235  23.97686
 Alpha virt. eigenvalues --   24.00199  24.00757  24.03493  24.03620  24.13462
 Alpha virt. eigenvalues --   24.14885  24.24518
          Condensed to atoms (all electrons):
               1          2          3          4          5          6
     1  C    7.442585  -0.195855  -1.766555  -0.388570   0.569747   0.602051
     2  C   -0.195855   7.445523  -0.389263  -1.770360   0.603624   0.571570
     3  C   -1.766555  -0.389263  14.551582  -0.831567  -6.786458   0.873220
     4  C   -0.388570  -1.770360  -0.831567  14.553031   0.874157  -6.785705
     5  C    0.569747   0.603624  -6.786458   0.874157  23.058187  -3.827766
     6  C    0.602051   0.571570   0.873220  -6.785705  -3.827766  23.052787
     7  C   -0.394343   0.005555  -0.089189   0.278302  -1.962556  -6.184289
     8  C    0.005895  -0.395634   0.278103  -0.088807  -6.187542  -1.959883
     9  C   -0.113545  -0.061179  -0.930125   1.077817  -0.702980   0.597939
    10  C   -0.061046  -0.113633   1.078056  -0.929947   0.598383  -0.703548
    11  H    0.424795  -0.075077   0.037715  -0.041389  -0.060727   0.080828
    12  H    0.554487   0.013649  -0.128424  -0.080966   0.013838  -0.090799
    13  H   -0.075092   0.424737  -0.041369   0.037682   0.080872  -0.060703
    14  H    0.013623   0.554587  -0.081059  -0.128536  -0.090681   0.013881
    15  H   -0.005173  -0.035059   0.424509   0.033318   0.009193  -0.137873
    16  H   -0.105354   0.008607   0.489467   0.044540  -0.079831  -0.045988
    17  H   -0.035057  -0.005186   0.033263   0.424606  -0.137946   0.009213
    18  H    0.008652  -0.105451   0.044558   0.489420  -0.045921  -0.079811
    19  H    0.000641   0.003373   0.001225  -0.047688  -0.060060   0.015822
    20  H    0.003373   0.000648  -0.047682   0.001218   0.015773  -0.060084
    21  H    0.001334  -0.000066  -0.024957   0.013462   0.029219   0.004494
    22  H   -0.000064   0.001342   0.013451  -0.024973   0.004504   0.029243
               7          8          9         10         11         12
     1  C   -0.394343   0.005895  -0.113545  -0.061046   0.424795   0.554487
     2  C    0.005555  -0.395634  -0.061179  -0.113633  -0.075077   0.013649
     3  C   -0.089189   0.278103  -0.930125   1.078056   0.037715  -0.128424
     4  C    0.278302  -0.088807   1.077817  -0.929947  -0.041389  -0.080966
     5  C   -1.962556  -6.187542  -0.702980   0.598383  -0.060727   0.013838
     6  C   -6.184289  -1.959883   0.597939  -0.703548   0.080828  -0.090799
     7  C   12.107746   2.734093   0.321725  -1.259075  -0.026344   0.066435
     8  C    2.734093  12.107763  -1.258049   0.321341  -0.018205   0.012682
     9  C    0.321725  -1.258049   8.141015  -1.048542  -0.005194  -0.000243
    10  C   -1.259075   0.321341  -1.048542   8.142608   0.003773  -0.006518
    11  H   -0.026344  -0.018205  -0.005194   0.003773   0.444561  -0.006555
    12  H    0.066435   0.012682  -0.000243  -0.006518  -0.006555   0.428208
    13  H   -0.018199  -0.026338   0.003768  -0.005185  -0.009492  -0.000882
    14  H    0.012671   0.066376  -0.006488  -0.000256  -0.000889   0.004479
    15  H    0.044398  -0.021626   0.019962  -0.000309  -0.002212   0.001883
    16  H    0.038231  -0.023520   0.037545  -0.001276  -0.008134  -0.006886
    17  H   -0.021725   0.044452  -0.000265   0.019982  -0.001311   0.002118
    18  H   -0.023468   0.038157  -0.001302   0.037531   0.000750  -0.004405
    19  H    0.405484   0.066418  -0.095019   0.018018   0.000344   0.000377
    20  H    0.066440   0.405569   0.017996  -0.095034  -0.000278   0.000766
    21  H   -0.028317  -0.030979   0.407944  -0.051671  -0.000228   0.000105
    22  H   -0.030986  -0.028326  -0.051642   0.407937   0.000016   0.000007
              13         14         15         16         17         18
     1  C   -0.075092   0.013623  -0.005173  -0.105354  -0.035057   0.008652
     2  C    0.424737   0.554587  -0.035059   0.008607  -0.005186  -0.105451
     3  C   -0.041369  -0.081059   0.424509   0.489467   0.033263   0.044558
     4  C    0.037682  -0.128536   0.033318   0.044540   0.424606   0.489420
     5  C    0.080872  -0.090681   0.009193  -0.079831  -0.137946  -0.045921
     6  C   -0.060703   0.013881  -0.137873  -0.045988   0.009213  -0.079811
     7  C   -0.018199   0.012671   0.044398   0.038231  -0.021725  -0.023468
     8  C   -0.026338   0.066376  -0.021626  -0.023520   0.044452   0.038157
     9  C    0.003768  -0.006488   0.019962   0.037545  -0.000265  -0.001302
    10  C   -0.005185  -0.000256  -0.000309  -0.001276   0.019982   0.037531
    11  H   -0.009492  -0.000889  -0.002212  -0.008134  -0.001311   0.000750
    12  H   -0.000882   0.004479   0.001883  -0.006886   0.002118  -0.004405
    13  H    0.444645  -0.006553  -0.001310   0.000747  -0.002221  -0.008147
    14  H   -0.006553   0.428209   0.002117  -0.004403   0.001883  -0.006893
    15  H   -0.001310   0.002117   0.427045  -0.020726   0.000839  -0.000274
    16  H    0.000747  -0.004403  -0.020726   0.475469  -0.000272   0.001311
    17  H   -0.002221   0.001883   0.000839  -0.000272   0.427105  -0.020746
    18  H   -0.008147  -0.006893  -0.000274   0.001311  -0.020746   0.475516
    19  H   -0.000278   0.000764  -0.002563  -0.002744   0.000109  -0.000299
    20  H    0.000343   0.000377   0.000111  -0.000300  -0.002565  -0.002749
    21  H    0.000016   0.000008   0.000548   0.000808  -0.000118  -0.000130
    22  H   -0.000227   0.000104  -0.000119  -0.000129   0.000548   0.000808
              19         20         21         22
     1  C    0.000641   0.003373   0.001334  -0.000064
     2  C    0.003373   0.000648  -0.000066   0.001342
     3  C    0.001225  -0.047682  -0.024957   0.013451
     4  C   -0.047688   0.001218   0.013462  -0.024973
     5  C   -0.060060   0.015773   0.029219   0.004504
     6  C    0.015822  -0.060084   0.004494   0.029243
     7  C    0.405484   0.066440  -0.028317  -0.030986
     8  C    0.066418   0.405569  -0.030979  -0.028326
     9  C   -0.095019   0.017996   0.407944  -0.051642
    10  C    0.018018  -0.095034  -0.051671   0.407937
    11  H    0.000344  -0.000278  -0.000228   0.000016
    12  H    0.000377   0.000766   0.000105   0.000007
    13  H   -0.000278   0.000343   0.000016  -0.000227
    14  H    0.000764   0.000377   0.000008   0.000104
    15  H   -0.002563   0.000111   0.000548  -0.000119
    16  H   -0.002744  -0.000300   0.000808  -0.000129
    17  H    0.000109  -0.002565  -0.000118   0.000548
    18  H   -0.000299  -0.002749  -0.000130   0.000808
    19  H    0.425231   0.001443  -0.008841   0.001325
    20  H    0.001443   0.425233   0.001324  -0.008835
    21  H   -0.008841   0.001324   0.420526  -0.005225
    22  H    0.001325  -0.008835  -0.005225   0.420506
 Mulliken charges:
               1
     1  C   -0.486528
     2  C   -0.486452
     3  C   -0.708502
     4  C   -0.709043
     5  C    0.084971
     6  C    0.085401
     7  C   -0.042588
     8  C   -0.041938
     9  C   -0.351138
    10  C   -0.351590
    11  H    0.263250
    12  H    0.226642
    13  H    0.263188
    14  H    0.226678
    15  H    0.263321
    16  H    0.202836
    17  H    0.263295
    18  H    0.202890
    19  H    0.276919
    20  H    0.276912
    21  H    0.270742
    22  H    0.270734
 Sum of Mulliken charges =  -0.00000
 Mulliken charges with hydrogens summed into heavy atoms:
               1
     1  C    0.003364
     2  C    0.003414
     3  C   -0.242345
     4  C   -0.242859
     5  C    0.084971
     6  C    0.085401
     7  C    0.234331
     8  C    0.234974
     9  C   -0.080396
    10  C   -0.080856
 Electronic spatial extent (au):  <R**2>=           1436.0995
 Charge=             -0.0000 electrons
 Dipole moment (field-independent basis, Debye):
    X=             -0.8019    Y=              0.0002    Z=              0.0003  Tot=              0.8019
 Quadrupole moment (field-independent basis, Debye-Ang):
   XX=            -57.8803   YY=            -57.3307   ZZ=            -64.7562
   XY=             -0.0005   XZ=              0.0001   YZ=              0.3463
 Traceless Quadrupole moment (field-independent basis, Debye-Ang):
   XX=              2.1088   YY=              2.6584   ZZ=             -4.7671
   XY=             -0.0005   XZ=              0.0001   YZ=              0.3463
 Octapole moment (field-independent basis, Debye-Ang**2):
  XXX=              8.4053  YYY=              0.0029  ZZZ=              0.0012  XYY=              3.1024
  XXY=              0.0018  XXZ=              0.0002  XZZ=             -9.1891  YZZ=             -0.0004
  YYZ=              0.0005  XYZ=              0.0378
 Hexadecapole moment (field-independent basis, Debye-Ang**3):
 XXXX=          -1268.7444 YYYY=           -562.7087 ZZZZ=           -115.8877 XXXY=             -0.0093
 XXXZ=              0.0039 YYYX=             -0.0036 YYYZ=             -1.8171 ZZZX=             -0.0002
 ZZZY=              1.1530 XXYY=           -305.1184 XXZZ=           -259.2755 YYZZ=           -121.1087
 XXYZ=              3.6796 YYXZ=              0.0008 ZZXY=             -0.0012
 N-N= 5.032309156180D+02 E-N=-1.905663522674D+03  KE= 3.861956460601D+02
 R6APFD:  NTU= -4 IXU= 1 FactS= 1.050
 Calling FoFJK, ICntrl=      2127 FMM=F ISym2X=0 I1Cent= 0 IOpClX= 0 NMat=1 NMatS=1 NMatT=0.
 ***** Axes restored to original set *****
 -------------------------------------------------------------------
 Center     Atomic                   Forces (Hartrees/Bohr)
 Number     Number              X              Y              Z
 -------------------------------------------------------------------
      1        6          -0.000939912   -0.000692818   -0.002449450
      2        6          -0.001128602    0.000690494    0.002427069
      3        6          -0.003474530    0.001019420    0.003494649
      4        6          -0.003320565   -0.000954493   -0.003459560
      5        6           0.006313386    0.002690633   -0.002045680
      6        6           0.006138423   -0.002703035    0.002045733
      7        6           0.002397213    0.010263422    0.001093768
      8        6           0.002399403   -0.010212630   -0.001127567
      9        6          -0.004413538   -0.003233074   -0.000413544
     10        6          -0.004403884    0.003181921    0.000433433
     11        1          -0.001569483   -0.001376315    0.000978775
     12        1           0.000681953    0.000825697    0.002396162
     13        1          -0.001477965    0.001323595   -0.001003976
     14        1           0.000681756   -0.000826365   -0.002391273
     15        1          -0.000930037   -0.002397537   -0.002135852
     16        1           0.002702319   -0.002759210   -0.001808640
     17        1          -0.000922078    0.002402034    0.002122711
     18        1           0.002698865    0.002726951    0.001837287
     19        1          -0.002361608   -0.002097067    0.000330824
     20        1          -0.002347576    0.002102026   -0.000322281
     21        1           0.001626418   -0.001117353   -0.000062671
     22        1           0.001650041    0.001143704    0.000060084
 -------------------------------------------------------------------
 Cartesian Forces:  Max     0.010263422 RMS     0.002909633

 GradGradGradGradGradGradGradGradGradGradGradGradGradGradGradGradGradGrad
 Berny optimization.
 FormGI is forming the generalized inverse of G from B-inverse, IUseBI=4.
 Internal  Forces:  Max     0.005266877 RMS     0.001639231
 Search for a local minimum.
 Step number   1 out of a maximum of  132
 All quantities printed in internal units (Hartrees-Bohrs-Radians)
 Mixed Optimization -- RFO/linear search
 Second derivative matrix not updated -- first step.
 ITU=  0
     Eigenvalues ---    0.00580   0.00704   0.01140   0.01302   0.01588
     Eigenvalues ---    0.02096   0.02101   0.02105   0.02169   0.02175
     Eigenvalues ---    0.02184   0.02802   0.03108   0.04169   0.04381
     Eigenvalues ---    0.04965   0.05346   0.05833   0.06051   0.07303
     Eigenvalues ---    0.07999   0.08002   0.09323   0.09458   0.09461
     Eigenvalues ---    0.11640   0.12171   0.16000   0.16000   0.16000
     Eigenvalues ---    0.16000   0.18414   0.19045   0.22000   0.22616
     Eigenvalues ---    0.24086   0.24631   0.28702   0.28795   0.28949
     Eigenvalues ---    0.30933   0.31249   0.33965   0.33966   0.33989
     Eigenvalues ---    0.33991   0.34050   0.34058   0.34147   0.34167
     Eigenvalues ---    0.35112   0.35113   0.35265   0.35271   0.39998
     Eigenvalues ---    0.41552   0.44566   0.45908   0.45937   0.46756
 RFO step:  Lambda=-1.84831217D-03 EMin= 5.80496477D-03
 Linear search not attempted -- first point.
 Iteration  1 RMS(Cart)=  0.01840645 RMS(Int)=  0.00028820
 Iteration  2 RMS(Cart)=  0.00030656 RMS(Int)=  0.00004927
 Iteration  3 RMS(Cart)=  0.00000006 RMS(Int)=  0.00004927
 Variable       Old X    -DE/DX   Delta X   Delta X   Delta X     New X
                                 (Linear)    (Quad)   (Total)
    R1        2.87862   0.00329   0.00000   0.01155   0.01152   2.89014
    R2        2.88695   0.00279   0.00000   0.00841   0.00839   2.89534
    R3        2.07049   0.00177   0.00000   0.00515   0.00515   2.07565
    R4        2.07388   0.00248   0.00000   0.00726   0.00726   2.08114
    R5        2.88654   0.00290   0.00000   0.00876   0.00874   2.89528
    R6        2.07084   0.00166   0.00000   0.00484   0.00484   2.07568
    R7        2.07390   0.00247   0.00000   0.00725   0.00725   2.08115
    R8        2.85031   0.00401   0.00000   0.01298   0.01300   2.86332
    R9        2.07346   0.00288   0.00000   0.00843   0.00843   2.08189
   R10        2.07233   0.00136   0.00000   0.00397   0.00397   2.07629
   R11        2.85061   0.00393   0.00000   0.01275   0.01277   2.86338
   R12        2.07349   0.00287   0.00000   0.00840   0.00840   2.08189
   R13        2.07246   0.00131   0.00000   0.00384   0.00384   2.07630
   R14        2.65939  -0.00527   0.00000  -0.01234  -0.01230   2.64708
   R15        2.65155  -0.00464   0.00000  -0.01068  -0.01068   2.64087
   R16        2.65140  -0.00459   0.00000  -0.01055  -0.01055   2.64084
   R17        2.63514  -0.00424   0.00000  -0.00865  -0.00865   2.62650
   R18        2.05494   0.00205   0.00000   0.00580   0.00580   2.06073
   R19        2.63506  -0.00420   0.00000  -0.00856  -0.00856   2.62649
   R20        2.05493   0.00205   0.00000   0.00581   0.00581   2.06074
   R21        2.62992   0.00071   0.00000   0.00235   0.00235   2.63227
   R22        2.05246   0.00197   0.00000   0.00555   0.00555   2.05801
   R23        2.05237   0.00200   0.00000   0.00565   0.00565   2.05801
    A1        1.92766  -0.00062   0.00000  -0.00907  -0.00919   1.91847
    A2        1.92351   0.00107   0.00000   0.01385   0.01388   1.93740
    A3        1.91203  -0.00040   0.00000  -0.00587  -0.00589   1.90613
    A4        1.91304  -0.00023   0.00000   0.00496   0.00504   1.91808
    A5        1.91827   0.00044   0.00000  -0.00254  -0.00262   1.91564
    A6        1.86845  -0.00024   0.00000  -0.00105  -0.00104   1.86742
    A7        1.92787  -0.00063   0.00000  -0.00918  -0.00929   1.91857
    A8        1.92345   0.00107   0.00000   0.01387   0.01391   1.93736
    A9        1.91193  -0.00040   0.00000  -0.00583  -0.00586   1.90608
   A10        1.91303  -0.00022   0.00000   0.00496   0.00504   1.91807
   A11        1.91833   0.00044   0.00000  -0.00251  -0.00259   1.91574
   A12        1.86833  -0.00024   0.00000  -0.00103  -0.00102   1.86732
   A13        1.97659  -0.00064   0.00000  -0.00472  -0.00482   1.97177
   A14        1.90686  -0.00022   0.00000  -0.00307  -0.00302   1.90384
   A15        1.89700   0.00299   0.00000   0.03115   0.03120   1.92820
   A16        1.88533   0.00107   0.00000   0.00703   0.00704   1.89237
   A17        1.91815  -0.00175   0.00000  -0.01132  -0.01135   1.90680
   A18        1.87742  -0.00154   0.00000  -0.02043  -0.02044   1.85698
   A19        1.97673  -0.00066   0.00000  -0.00481  -0.00490   1.97183
   A20        1.90684  -0.00021   0.00000  -0.00296  -0.00291   1.90393
   A21        1.89702   0.00299   0.00000   0.03116   0.03121   1.92822
   A22        1.88522   0.00107   0.00000   0.00705   0.00707   1.89229
   A23        1.91808  -0.00174   0.00000  -0.01132  -0.01135   1.90673
   A24        1.87744  -0.00155   0.00000  -0.02048  -0.02049   1.85695
   A25        2.12081   0.00100   0.00000   0.00240   0.00226   2.12307
   A26        2.07766  -0.00029   0.00000   0.00252   0.00240   2.08006
   A27        2.08370  -0.00068   0.00000  -0.00362  -0.00378   2.07992
   A28        2.12060   0.00104   0.00000   0.00255   0.00241   2.12301
   A29        2.07770  -0.00030   0.00000   0.00247   0.00234   2.08004
   A30        2.08388  -0.00071   0.00000  -0.00373  -0.00388   2.08000
   A31        2.10537   0.00279   0.00000   0.01163   0.01160   2.11697
   A32        2.09840  -0.00385   0.00000  -0.02101  -0.02099   2.07740
   A33        2.07942   0.00107   0.00000   0.00938   0.00939   2.08881
   A34        2.10539   0.00277   0.00000   0.01160   0.01158   2.11696
   A35        2.09825  -0.00383   0.00000  -0.02090  -0.02089   2.07736
   A36        2.07955   0.00106   0.00000   0.00930   0.00931   2.08886
   A37        2.09387  -0.00208   0.00000  -0.00757  -0.00760   2.08627
   A38        2.09418   0.00088   0.00000   0.00281   0.00282   2.09700
   A39        2.09513   0.00120   0.00000   0.00476   0.00478   2.09991
   A40        2.09381  -0.00208   0.00000  -0.00754  -0.00757   2.08624
   A41        2.09432   0.00087   0.00000   0.00272   0.00274   2.09706
   A42        2.09505   0.00121   0.00000   0.00482   0.00484   2.09989
    D1       -1.08891  -0.00036   0.00000  -0.02595  -0.02593  -1.11483
    D2        3.07783  -0.00037   0.00000  -0.03529  -0.03527   3.04256
    D3        1.02661  -0.00047   0.00000  -0.03875  -0.03873   0.98789
    D4        3.07792  -0.00037   0.00000  -0.03534  -0.03532   3.04259
    D5        0.96147  -0.00038   0.00000  -0.04468  -0.04467   0.91680
    D6       -1.08975  -0.00049   0.00000  -0.04815  -0.04812  -1.13787
    D7        1.02646  -0.00047   0.00000  -0.03874  -0.03872   0.98774
    D8       -1.08999  -0.00048   0.00000  -0.04809  -0.04806  -1.13805
    D9       -3.14121  -0.00059   0.00000  -0.05155  -0.05151   3.09047
   D10        0.82320   0.00003   0.00000   0.01226   0.01226   0.83546
   D11       -1.27900  -0.00076   0.00000   0.00859   0.00859  -1.27041
   D12        2.96024  -0.00048   0.00000   0.01715   0.01717   2.97741
   D13        2.94577   0.00081   0.00000   0.02693   0.02692   2.97269
   D14        0.84357   0.00002   0.00000   0.02326   0.02325   0.86683
   D15       -1.20038   0.00031   0.00000   0.03182   0.03184  -1.16854
   D16       -1.28845   0.00064   0.00000   0.02710   0.02709  -1.26136
   D17        2.89254  -0.00014   0.00000   0.02343   0.02342   2.91596
   D18        0.84859   0.00014   0.00000   0.03199   0.03201   0.88059
   D19        0.82281   0.00003   0.00000   0.01237   0.01237   0.83518
   D20       -1.27934  -0.00076   0.00000   0.00865   0.00865  -1.27069
   D21        2.95987  -0.00048   0.00000   0.01720   0.01722   2.97709
   D22        2.94543   0.00081   0.00000   0.02700   0.02700   2.97243
   D23        0.84328   0.00002   0.00000   0.02328   0.02328   0.86656
   D24       -1.20069   0.00030   0.00000   0.03184   0.03185  -1.16884
   D25       -1.28891   0.00064   0.00000   0.02722   0.02722  -1.26170
   D26        2.89213  -0.00014   0.00000   0.02349   0.02349   2.91562
   D27        0.84815   0.00014   0.00000   0.03205   0.03207   0.88022
   D28       -0.32130   0.00052   0.00000   0.01421   0.01421  -0.30709
   D29        2.86885  -0.00011   0.00000  -0.01683  -0.01689   2.85197
   D30        1.79308   0.00058   0.00000   0.01222   0.01221   1.80530
   D31       -1.29995  -0.00005   0.00000  -0.01882  -0.01888  -1.31883
   D32       -2.44654  -0.00161   0.00000  -0.01445  -0.01438  -2.46092
   D33        0.74362  -0.00224   0.00000  -0.04549  -0.04548   0.69814
   D34       -0.32077   0.00051   0.00000   0.01402   0.01402  -0.30675
   D35        2.86931  -0.00011   0.00000  -0.01691  -0.01696   2.85234
   D36        1.79361   0.00058   0.00000   0.01213   0.01213   1.80574
   D37       -1.29950  -0.00004   0.00000  -0.01880  -0.01886  -1.31836
   D38       -2.44608  -0.00162   0.00000  -0.01458  -0.01451  -2.46059
   D39        0.74400  -0.00224   0.00000  -0.04551  -0.04550   0.69850
   D40        0.06695  -0.00098   0.00000  -0.02920  -0.02924   0.03771
   D41       -3.12330  -0.00034   0.00000   0.00200   0.00191  -3.12139
   D42       -3.12337  -0.00034   0.00000   0.00211   0.00202  -3.12135
   D43       -0.03043   0.00030   0.00000   0.03331   0.03317   0.00274
   D44        3.11597   0.00046   0.00000   0.00677   0.00667   3.12264
   D45       -0.02582   0.00023   0.00000   0.00526   0.00522  -0.02060
   D46        0.02189  -0.00020   0.00000  -0.02377  -0.02381  -0.00192
   D47       -3.11990  -0.00043   0.00000  -0.02528  -0.02527   3.13802
   D48        3.11638   0.00045   0.00000   0.00629   0.00619   3.12257
   D49       -0.02586   0.00023   0.00000   0.00532   0.00527  -0.02059
   D50        0.02223  -0.00021   0.00000  -0.02415  -0.02419  -0.00196
   D51       -3.12000  -0.00042   0.00000  -0.02512  -0.02511   3.13807
   D52       -0.00458   0.00010   0.00000   0.00482   0.00482   0.00024
   D53        3.13714  -0.00000   0.00000   0.00468   0.00471  -3.14134
   D54        3.13720   0.00032   0.00000   0.00631   0.00629  -3.13970
   D55       -0.00426   0.00022   0.00000   0.00618   0.00617   0.00191
   D56       -0.00492   0.00010   0.00000   0.00519   0.00520   0.00028
   D57        3.13698   0.00000   0.00000   0.00488   0.00491  -3.14130
   D58        3.13731   0.00032   0.00000   0.00617   0.00614  -3.13975
   D59       -0.00398   0.00022   0.00000   0.00586   0.00585   0.00187
   D60       -0.00402  -0.00005   0.00000   0.00458   0.00462   0.00060
   D61        3.13726   0.00005   0.00000   0.00488   0.00490  -3.14102
   D62        3.13743   0.00005   0.00000   0.00471   0.00474  -3.14101
   D63       -0.00446   0.00015   0.00000   0.00502   0.00502   0.00056
         Item               Value     Threshold  Converged?
 Maximum Force            0.005267     0.000450     NO 
 RMS     Force            0.001639     0.000300     NO 
 Maximum Displacement     0.079014     0.001800     NO 
 RMS     Displacement     0.018466     0.001200     NO 
 Predicted change in Energy=-9.635016D-04
 GradGradGradGradGradGradGradGradGradGradGradGradGradGradGradGradGradGrad

                          Input orientation:                          
 ---------------------------------------------------------------------
 Center     Atomic      Atomic             Coordinates (Angstroms)
 Number     Number       Type             X           Y           Z
 ---------------------------------------------------------------------
      1          6           0       -2.482527   -0.679678    0.350552
      2          6           0       -2.482596    0.679633   -0.350389
      3          6           0       -1.260167   -1.492897   -0.087614
      4          6           0       -1.260182    1.492925    0.087372
      5          6           0        0.029561   -0.699747   -0.029686
      6          6           0        0.029591    0.699777    0.029516
      7          6           0        1.249793   -1.380394   -0.056750
      8          6           0        1.249786    1.380453    0.056692
      9          6           0        2.459075   -0.695847   -0.028363
     10          6           0        2.459082    0.695928    0.028461
     11          1           0       -3.402092   -1.237561    0.127802
     12          1           0       -2.455733   -0.525329    1.440642
     13          1           0       -3.402133    1.237501   -0.127412
     14          1           0       -2.456226    0.525220   -1.440486
     15          1           0       -1.409971   -1.838884   -1.122778
     16          1           0       -1.158029   -2.396129    0.529590
     17          1           0       -1.409748    1.839256    1.122458
     18          1           0       -1.158068    2.395971   -0.530116
     19          1           0        1.247020   -2.470049   -0.099441
     20          1           0        1.246934    2.470107    0.099430
     21          1           0        3.399203   -1.245129   -0.050465
     22          1           0        3.399227    1.245174    0.050686
 ---------------------------------------------------------------------
                    Distance matrix (angstroms):
                    1          2          3          4          5
     1  C    0.000000
     2  C    1.529394   0.000000
     3  C    1.532148   2.506646   0.000000
     4  C    2.506710   1.532114   2.990945   0.000000
     5  C    2.540781   2.883830   1.515203   2.546557   0.000000
     6  C    2.883868   2.540830   2.546569   1.515237   1.400776
     7  C    3.819307   4.273250   2.512670   3.817946   1.397490
     8  C    4.273249   3.819364   3.817962   2.512674   2.413223
     9  C    4.956134   5.139627   3.804150   4.317058   2.429517
    10  C    5.139604   4.956206   4.317087   3.804156   2.802474
    11  H    1.098386   2.179397   2.167821   3.470586   3.477110
    12  H    1.101290   2.158807   2.168210   2.708142   2.892918
    13  H    2.179381   1.098400   3.470544   2.167794   3.941955
    14  H    2.158770   1.101295   2.708065   2.168253   3.109669
    15  H    2.159823   2.844299   1.101686   3.547936   2.136524
    16  H    2.175443   3.462536   1.098727   3.915448   2.144964
    17  H    2.844596   2.159863   3.548224   1.101689   3.137767
    18  H    3.462569   2.175429   3.915294   1.098731   3.353262
    19  H    4.161422   4.888099   2.690901   4.693199   2.149660
    20  H    4.888056   4.161434   4.693180   2.690848   3.398035
    21  H    5.922439   6.195984   4.666100   5.406089   3.413555
    22  H    6.195966   5.922545   5.406118   4.666135   3.891507
                    6          7          8          9         10
     6  C    0.000000
     7  C    2.413182   0.000000
     8  C    1.397475   2.763177   0.000000
     9  C    2.802412   1.389882   2.404296   0.000000
    10  C    2.429495   2.404320   1.389880   1.392935   0.000000
    11  H    3.942003   4.657735   5.338448   5.888219   6.172651
    12  H    3.109501   4.087083   4.390694   5.132484   5.257483
    13  H    3.477140   5.338426   4.657756   6.172634   5.888246
    14  H    2.893209   4.390976   4.087480   5.257878   5.132952
    15  H    3.137661   2.901891   4.339307   4.180166   4.766570
    16  H    3.353379   2.678268   4.503752   4.035556   4.784918
    17  H    2.136499   4.339336   2.901634   4.766438   4.179937
    18  H    2.144946   4.503644   2.678317   4.784853   4.035583
    19  H    3.398023   1.090494   3.853667   2.149865   3.392471
    20  H    2.149623   3.853668   1.090495   3.392475   2.149896
    21  H    3.891444   2.153670   3.394871   1.089054   2.158184
    22  H    3.413554   3.394881   2.153702   2.158170   1.089053
                   11         12         13         14         15
    11  H    0.000000
    12  H    1.768169   0.000000
    13  H    2.488185   2.542054   0.000000
    14  H    2.541965   3.066684   1.768119   0.000000
    15  H    2.427774   3.064339   3.797843   2.604722   0.000000
    16  H    2.557251   2.452335   4.320986   3.755103   1.761908
    17  H    3.798103   2.605108   2.427732   3.064390   4.309269
    18  H    4.321001   3.755238   2.557352   2.452284   4.283538
    19  H    4.815071   4.456924   5.946539   4.948138   2.916366
    20  H    5.946516   4.947851   4.815039   4.457277   5.207719
    21  H    6.803635   6.084553   7.240686   6.273144   4.962917
    22  H    7.240709   6.272736   6.803696   6.085085   5.832393
                   16         17         18         19         20
    16  H    0.000000
    17  H    4.284080   0.000000
    18  H    4.907871   1.761894   0.000000
    19  H    2.487047   5.207836   5.445005   0.000000
    20  H    5.445102   2.915908   2.487139   4.944157   0.000000
    21  H    4.735992   5.832254   5.852896   2.476836   4.296243
    22  H    5.852949   4.962647   4.736096   4.296209   2.476934
                   21         22
    21  H    0.000000
    22  H    2.492356   0.000000
 Stoichiometry    C10H12
 Framework group  C1[X(C10H12)]
 Deg. of freedom    60
 Full point group                 C1      NOp   1
 Largest Abelian subgroup         C1      NOp   1
 Largest concise Abelian subgroup C1      NOp   1
                         Standard orientation:                         
 ---------------------------------------------------------------------
 Center     Atomic      Atomic             Coordinates (Angstroms)
 Number     Number       Type             X           Y           Z
 ---------------------------------------------------------------------
      1          6           0       -2.376824    0.677761   -0.354242
      2          6           0       -2.376879   -0.677754    0.354013
      3          6           0       -1.154478    1.493346    0.079543
      4          6           0       -1.154451   -1.493376   -0.079351
      5          6           0        0.135261    0.699913    0.025897
      6          6           0        0.135311   -0.699910   -0.025763
      7          6           0        1.355483    1.380714    0.049300
      8          6           0        1.355516   -1.380705   -0.049263
      9          6           0        2.564775    0.696041    0.024610
     10          6           0        2.564802   -0.696021   -0.024714
     11          1           0       -3.296399    1.236823   -0.134507
     12          1           0       -2.350022    0.517540   -1.443485
     13          1           0       -3.296407   -1.236828    0.134040
     14          1           0       -2.350518   -0.517469    1.443262
     15          1           0       -1.304293    1.844904    1.112826
     16          1           0       -1.052349    2.393240   -0.542520
     17          1           0       -1.304005   -1.845282   -1.112557
     18          1           0       -1.052328   -2.393080    0.542994
     19          1           0        1.352695    2.470582    0.086118
     20          1           0        1.352679   -2.470573   -0.086128
     21          1           0        3.504895    1.245446    0.043757
     22          1           0        3.504954   -1.245365   -0.043973
 ---------------------------------------------------------------------
 Rotational constants (GHZ):           2.7808299           1.1295157           0.8312436
 Standard basis: 6-311++G(d,p) (5D, 7F)
 There are   314 symmetry adapted cartesian basis functions of A   symmetry.
 There are   304 symmetry adapted basis functions of A   symmetry.
   304 basis functions,   468 primitive gaussians,   314 cartesian basis functions
    36 alpha electrons       36 beta electrons
       nuclear repulsion energy       503.2373416983 Hartrees.
 NAtoms=   22 NActive=   22 NUniq=   22 SFac= 1.00D+00 NAtFMM=   60 NAOKFM=F Big=F
 Integral buffers will be    131072 words long.
 Raffenetti 2 integral format.
 Two-electron integral symmetry is turned on.
 R6APFD:  NTU= -4 IXU= 1 FactS= 1.050
 Nuclear repulsion after empirical dispersion term =      503.2233870575 Hartrees.
 One-electron integrals computed using PRISM.
 NBasis=   304 RedAO= T EigKep=  1.66D-06  NBF=   304
 NBsUse=   303 1.00D-06 EigRej=  3.97D-07 NBFU=   303
 Initial guess from the checkpoint file:  "TRAN0166.chk"
 B after Tr=    -0.000000    0.000000   -0.000000
         Rot=    1.000000    0.000532    0.000002   -0.000008 Ang=   0.06 deg.
 ExpMin= 3.60D-02 ExpMax= 4.56D+03 ExpMxC= 6.82D+02 IAcc=3 IRadAn=         5 AccDes= 0.00D+00
 Harris functional with IExCor= 1009 and IRadAn=       5 diagonalized for initial guess.
 HarFok:  IExCor= 1009 AccDes= 0.00D+00 IRadAn=         5 IDoV= 1 UseB2=F ITyADJ=14
 ICtDFT=  3500011 ScaDFX=  1.000000  1.000000  1.000000  1.000000
 FoFCou: FMM=F IPFlag=           0 FMFlag=      100000 FMFlg1=           0
         NFxFlg=           0 DoJE=T BraDBF=F KetDBF=T FulRan=T
         wScrn=  0.000000 ICntrl=       500 IOpCl=  0 I1Cent=   200000004 NGrid=           0
         NMat0=    1 NMatS0=      1 NMatT0=    0 NMatD0=    1 NMtDS0=    0 NMtDT0=    0
 Petite list used in FoFCou.
 Requested convergence on RMS density matrix=1.00D-08 within  32 cycles.
 Requested convergence on MAX density matrix=1.00D-06.
 Requested convergence on             energy=1.00D-06.
 No special actions if energy rises.
 SCF Done:  E(RM08HX) =  -388.317943656     A.U. after   12 cycles
            NFock= 12  Conv=0.35D-08     -V/T= 2.0056
 QCSCF skips out because SCF is already converged.
 R6APFD:  NTU= -4 IXU= 1 FactS= 1.050
 Calling FoFJK, ICntrl=      2127 FMM=F ISym2X=0 I1Cent= 0 IOpClX= 0 NMat=1 NMatS=1 NMatT=0.
 ***** Axes restored to original set *****
 -------------------------------------------------------------------
 Center     Atomic                   Forces (Hartrees/Bohr)
 Number     Number              X              Y              Z
 -------------------------------------------------------------------
      1        6           0.000477305   -0.000697310   -0.000096064
      2        6           0.000434592    0.000696188    0.000092622
      3        6          -0.001235327    0.000877803    0.000584257
      4        6          -0.001197153   -0.000871613   -0.000580858
      5        6          -0.000633145    0.000067012    0.000483312
      6        6          -0.000678160   -0.000071563   -0.000485848
      7        6           0.001542890    0.000686403    0.000020349
      8        6           0.001548340   -0.000682305   -0.000014257
      9        6          -0.000199377   -0.001588674   -0.000138293
     10        6          -0.000199515    0.001583191    0.000135751
     11        1           0.000155230    0.000202424    0.000434394
     12        1           0.000401007    0.000189036    0.000147428
     13        1           0.000162231   -0.000202988   -0.000433262
     14        1           0.000411195   -0.000186001   -0.000145135
     15        1          -0.000121707   -0.000218242   -0.000270417
     16        1           0.000301123   -0.000324996   -0.000517231
     17        1          -0.000129258    0.000214569    0.000267990
     18        1           0.000294923    0.000324621    0.000517228
     19        1          -0.000487684   -0.000347273   -0.000053008
     20        1          -0.000483291    0.000346363    0.000050968
     21        1          -0.000181032    0.000034632    0.000062573
     22        1          -0.000183188   -0.000031277   -0.000062498
 -------------------------------------------------------------------
 Cartesian Forces:  Max     0.001588674 RMS     0.000573610

 GradGradGradGradGradGradGradGradGradGradGradGradGradGradGradGradGradGrad
 Berny optimization.
 Using GEDIIS/GDIIS optimizer.
 FormGI is forming the generalized inverse of G from B-inverse, IUseBI=4.
 Internal  Forces:  Max     0.001284384 RMS     0.000264981
 Search for a local minimum.
 Step number   2 out of a maximum of  132
 All quantities printed in internal units (Hartrees-Bohrs-Radians)
 Mixed Optimization -- En-DIIS/RFO-DIIS
 Update second derivatives using D2CorX and points    1    2
 DE= -1.05D-03 DEPred=-9.64D-04 R= 1.09D+00
 TightC=F SS=  1.41D+00  RLast= 2.10D-01 DXNew= 5.0454D-01 6.3012D-01
 Trust test= 1.09D+00 RLast= 2.10D-01 DXMaxT set to 5.05D-01
 ITU=  1  0
 Use linear search instead of GDIIS.
     Eigenvalues ---    0.00582   0.00644   0.01140   0.01300   0.01626
     Eigenvalues ---    0.02096   0.02105   0.02108   0.02168   0.02175
     Eigenvalues ---    0.02185   0.02772   0.03124   0.04125   0.04431
     Eigenvalues ---    0.04989   0.05332   0.05797   0.06041   0.07174
     Eigenvalues ---    0.07919   0.07928   0.09302   0.09345   0.09505
     Eigenvalues ---    0.11322   0.12134   0.15635   0.16000   0.16000
     Eigenvalues ---    0.16001   0.18357   0.18909   0.22000   0.22486
     Eigenvalues ---    0.24094   0.24653   0.28575   0.28771   0.29437
     Eigenvalues ---    0.30923   0.31770   0.33793   0.33965   0.33976
     Eigenvalues ---    0.33990   0.34051   0.34060   0.34156   0.34421
     Eigenvalues ---    0.35025   0.35112   0.35268   0.35484   0.39976
     Eigenvalues ---    0.41494   0.44655   0.45934   0.46171   0.47438
 RFO step:  Lambda=-1.41755573D-04 EMin= 5.82196357D-03
 Quartic linear search produced a step of  0.16278.
 Iteration  1 RMS(Cart)=  0.01322486 RMS(Int)=  0.00012489
 Iteration  2 RMS(Cart)=  0.00014730 RMS(Int)=  0.00003296
 Iteration  3 RMS(Cart)=  0.00000001 RMS(Int)=  0.00003296
 Variable       Old X    -DE/DX   Delta X   Delta X   Delta X     New X
                                 (Linear)    (Quad)   (Total)
    R1        2.89014   0.00027   0.00187  -0.00111   0.00072   2.89085
    R2        2.89534  -0.00088   0.00137  -0.00532  -0.00396   2.89138
    R3        2.07565  -0.00032   0.00084  -0.00161  -0.00077   2.07488
    R4        2.08114   0.00018   0.00118  -0.00011   0.00107   2.08221
    R5        2.89528  -0.00088   0.00142  -0.00531  -0.00390   2.89138
    R6        2.07568  -0.00033   0.00079  -0.00160  -0.00081   2.07486
    R7        2.08115   0.00018   0.00118  -0.00012   0.00106   2.08221
    R8        2.86332  -0.00005   0.00212  -0.00073   0.00141   2.86473
    R9        2.08189   0.00034   0.00137   0.00030   0.00168   2.08356
   R10        2.07629   0.00001   0.00065  -0.00038   0.00026   2.07656
   R11        2.86338  -0.00006   0.00208  -0.00073   0.00136   2.86475
   R12        2.08189   0.00034   0.00137   0.00030   0.00166   2.08356
   R13        2.07630   0.00000   0.00062  -0.00037   0.00025   2.07655
   R14        2.64708  -0.00029  -0.00200   0.00127  -0.00070   2.64638
   R15        2.64087   0.00056  -0.00174   0.00241   0.00066   2.64154
   R16        2.64084   0.00057  -0.00172   0.00242   0.00069   2.64154
   R17        2.62650  -0.00047  -0.00141  -0.00019  -0.00159   2.62491
   R18        2.06073   0.00035   0.00094   0.00057   0.00152   2.06225
   R19        2.62649  -0.00046  -0.00139  -0.00019  -0.00158   2.62491
   R20        2.06074   0.00035   0.00095   0.00057   0.00151   2.06225
   R21        2.63227   0.00128   0.00038   0.00313   0.00352   2.63579
   R22        2.05801  -0.00018   0.00090  -0.00114  -0.00023   2.05778
   R23        2.05801  -0.00018   0.00092  -0.00115  -0.00023   2.05778
    A1        1.91847  -0.00005  -0.00150  -0.00681  -0.00848   1.90999
    A2        1.93740   0.00006   0.00226   0.00167   0.00402   1.94142
    A3        1.90613  -0.00003  -0.00096   0.00068  -0.00028   1.90585
    A4        1.91808  -0.00013   0.00082   0.00270   0.00358   1.92166
    A5        1.91564   0.00015  -0.00043   0.00027  -0.00014   1.91551
    A6        1.86742   0.00001  -0.00017   0.00172   0.00153   1.86894
    A7        1.91857  -0.00005  -0.00151  -0.00688  -0.00856   1.91001
    A8        1.93736   0.00006   0.00226   0.00172   0.00406   1.94142
    A9        1.90608  -0.00003  -0.00095   0.00073  -0.00023   1.90584
   A10        1.91807  -0.00013   0.00082   0.00271   0.00359   1.92165
   A11        1.91574   0.00014  -0.00042   0.00018  -0.00022   1.91551
   A12        1.86732   0.00001  -0.00017   0.00179   0.00160   1.86892
   A13        1.97177  -0.00013  -0.00078  -0.00497  -0.00584   1.96593
   A14        1.90384  -0.00002  -0.00049   0.00033  -0.00013   1.90371
   A15        1.92820   0.00043   0.00508   0.00348   0.00858   1.93678
   A16        1.89237   0.00019   0.00115   0.00137   0.00252   1.89489
   A17        1.90680  -0.00023  -0.00185   0.00091  -0.00089   1.90592
   A18        1.85698  -0.00024  -0.00333  -0.00092  -0.00426   1.85272
   A19        1.97183  -0.00014  -0.00080  -0.00496  -0.00585   1.96598
   A20        1.90393  -0.00002  -0.00047   0.00023  -0.00021   1.90372
   A21        1.92822   0.00042   0.00508   0.00343   0.00854   1.93676
   A22        1.89229   0.00020   0.00115   0.00143   0.00257   1.89487
   A23        1.90673  -0.00023  -0.00185   0.00096  -0.00083   1.90590
   A24        1.85695  -0.00024  -0.00334  -0.00090  -0.00425   1.85270
   A25        2.12307  -0.00001   0.00037  -0.00125  -0.00095   2.12212
   A26        2.08006   0.00007   0.00039   0.00119   0.00160   2.08166
   A27        2.07992  -0.00006  -0.00062  -0.00000  -0.00064   2.07928
   A28        2.12301   0.00000   0.00039  -0.00119  -0.00087   2.12215
   A29        2.08004   0.00007   0.00038   0.00118   0.00158   2.08163
   A30        2.08000  -0.00008  -0.00063  -0.00006  -0.00071   2.07929
   A31        2.11697   0.00026   0.00189  -0.00008   0.00179   2.11877
   A32        2.07740  -0.00063  -0.00342  -0.00204  -0.00545   2.07195
   A33        2.08881   0.00037   0.00153   0.00212   0.00366   2.09247
   A34        2.11696   0.00026   0.00188  -0.00007   0.00180   2.11876
   A35        2.07736  -0.00063  -0.00340  -0.00203  -0.00542   2.07194
   A36        2.08886   0.00037   0.00152   0.00209   0.00362   2.09248
   A37        2.08627  -0.00020  -0.00124   0.00010  -0.00114   2.08514
   A38        2.09700   0.00004   0.00046  -0.00039   0.00007   2.09707
   A39        2.09991   0.00016   0.00078   0.00029   0.00107   2.10098
   A40        2.08624  -0.00019  -0.00123   0.00013  -0.00111   2.08513
   A41        2.09706   0.00003   0.00045  -0.00043   0.00002   2.09707
   A42        2.09989   0.00016   0.00079   0.00030   0.00109   2.10098
    D1       -1.11483  -0.00048  -0.00422  -0.02530  -0.02952  -1.14436
    D2        3.04256  -0.00033  -0.00574  -0.02520  -0.03093   3.01163
    D3        0.98789  -0.00035  -0.00630  -0.02887  -0.03518   0.95271
    D4        3.04259  -0.00033  -0.00575  -0.02521  -0.03095   3.01164
    D5        0.91680  -0.00017  -0.00727  -0.02511  -0.03236   0.88444
    D6       -1.13787  -0.00020  -0.00783  -0.02878  -0.03661  -1.17448
    D7        0.98774  -0.00035  -0.00630  -0.02874  -0.03506   0.95269
    D8       -1.13805  -0.00019  -0.00782  -0.02864  -0.03647  -1.17452
    D9        3.09047  -0.00022  -0.00839  -0.03231  -0.04072   3.04975
   D10        0.83546   0.00019   0.00200   0.01763   0.01958   0.85504
   D11       -1.27041   0.00004   0.00140   0.01890   0.02028  -1.25012
   D12        2.97741   0.00010   0.00280   0.01783   0.02059   2.99800
   D13        2.97269   0.00014   0.00438   0.01701   0.02136   2.99405
   D14        0.86683  -0.00000   0.00379   0.01829   0.02207   0.88889
   D15       -1.16854   0.00006   0.00518   0.01722   0.02238  -1.14617
   D16       -1.26136   0.00016   0.00441   0.02087   0.02527  -1.23609
   D17        2.91596   0.00002   0.00381   0.02215   0.02598   2.94194
   D18        0.88059   0.00008   0.00521   0.02108   0.02629   0.90688
   D19        0.83518   0.00018   0.00201   0.01761   0.01958   0.85476
   D20       -1.27069   0.00004   0.00141   0.01889   0.02028  -1.25042
   D21        2.97709   0.00010   0.00280   0.01787   0.02064   2.99773
   D22        2.97243   0.00014   0.00440   0.01701   0.02137   2.99380
   D23        0.86656  -0.00000   0.00379   0.01829   0.02207   0.88862
   D24       -1.16884   0.00006   0.00518   0.01727   0.02243  -1.14642
   D25       -1.26170   0.00016   0.00443   0.02091   0.02532  -1.23637
   D26        2.91562   0.00002   0.00382   0.02218   0.02602   2.94163
   D27        0.88022   0.00008   0.00522   0.02116   0.02638   0.90660
   D28       -0.30709  -0.00004   0.00231  -0.00701  -0.00469  -0.31179
   D29        2.85197  -0.00005  -0.00275  -0.00248  -0.00523   2.84673
   D30        1.80530  -0.00001   0.00199  -0.00884  -0.00687   1.79842
   D31       -1.31883  -0.00002  -0.00307  -0.00431  -0.00741  -1.32624
   D32       -2.46092  -0.00032  -0.00234  -0.00869  -0.01103  -2.47195
   D33        0.69814  -0.00033  -0.00740  -0.00417  -0.01157   0.68657
   D34       -0.30675  -0.00004   0.00228  -0.00704  -0.00475  -0.31151
   D35        2.85234  -0.00005  -0.00276  -0.00253  -0.00530   2.84704
   D36        1.80574  -0.00002   0.00197  -0.00895  -0.00699   1.79874
   D37       -1.31836  -0.00003  -0.00307  -0.00444  -0.00754  -1.32590
   D38       -2.46059  -0.00032  -0.00236  -0.00872  -0.01108  -2.47167
   D39        0.69850  -0.00033  -0.00741  -0.00421  -0.01162   0.68688
   D40        0.03771  -0.00015  -0.00476   0.00131  -0.00345   0.03426
   D41       -3.12139  -0.00014   0.00031  -0.00318  -0.00288  -3.12427
   D42       -3.12135  -0.00014   0.00033  -0.00321  -0.00289  -3.12424
   D43        0.00274  -0.00013   0.00540  -0.00770  -0.00232   0.00042
   D44        3.12264   0.00010   0.00109   0.00097   0.00204   3.12468
   D45       -0.02060   0.00006   0.00085   0.00051   0.00135  -0.01925
   D46       -0.00192   0.00009  -0.00388   0.00540   0.00152  -0.00040
   D47        3.13802   0.00005  -0.00411   0.00494   0.00083   3.13885
   D48        3.12257   0.00010   0.00101   0.00111   0.00210   3.12467
   D49       -0.02059   0.00006   0.00086   0.00047   0.00132  -0.01927
   D50       -0.00196   0.00009  -0.00394   0.00551   0.00157  -0.00039
   D51        3.13807   0.00005  -0.00409   0.00487   0.00079   3.13886
   D52        0.00024  -0.00000   0.00078  -0.00068   0.00010   0.00034
   D53       -3.14134  -0.00005   0.00077  -0.00235  -0.00159   3.14026
   D54       -3.13970   0.00004   0.00102  -0.00022   0.00081  -3.13889
   D55        0.00191  -0.00001   0.00100  -0.00189  -0.00088   0.00103
   D56        0.00028  -0.00000   0.00085  -0.00080   0.00005   0.00032
   D57       -3.14130  -0.00005   0.00080  -0.00244  -0.00164   3.14025
   D58       -3.13975   0.00004   0.00100  -0.00015   0.00085  -3.13890
   D59        0.00187  -0.00001   0.00095  -0.00179  -0.00084   0.00103
   D60        0.00060  -0.00004   0.00075  -0.00165  -0.00089  -0.00029
   D61       -3.14102   0.00000   0.00080   0.00000   0.00080  -3.14021
   D62       -3.14101   0.00001   0.00077   0.00003   0.00080  -3.14021
   D63        0.00056   0.00005   0.00082   0.00168   0.00250   0.00305
         Item               Value     Threshold  Converged?
 Maximum Force            0.001284     0.000450     NO 
 RMS     Force            0.000265     0.000300     YES
 Maximum Displacement     0.064035     0.001800     NO 
[...]
 037,-0.00063204,-0.00109368,-0.01718213,-0.00025221,-0.00189317,-0.008
 58159,-0.00048689,-0.00132529,0.00074851,-0.00056824,-0.00007092,0.000
 05263,0.00046499,0.00010914,-0.00013587,0.00051576,0.00010765,0.000091
 45,0.00020117,0.00003401,-0.00002948,-0.00012644,-0.00016994,-0.000004
 75,-0.00000603,0.00019453,0.00000650,-0.00019604,-0.00060104,-0.005091
 26,0.01360745,0.04210313,0.31770967,0.00229838,-0.00156753,-0.00074018
 ,-0.23110928,0.11114508,0.04092742,0.00104990,-0.00069582,-0.00007984,
 -0.02155172,0.01366194,0.00479988,0.00033540,-0.00039449,0.00007453,-0
 .00216292,-0.00494028,-0.00181091,0.00019863,0.00001308,0.00007742,-0.
 00093540,0.00128983,-0.00016950,-0.00010739,-0.00007120,-0.00001877,-0
 .00038465,-0.00023601,0.00016748,0.00065289,0.00032550,-0.00024774,-0.
 00016825,0.00038452,-0.00030442,0.25230639,0.02452320,-0.01464394,-0.0
 0773874,0.11163694,-0.11239824,-0.02448012,-0.00122919,-0.00506071,0.0
 0474394,-0.01729990,0.01053636,0.00346151,-0.00093744,-0.00016611,0.00
 002209,-0.00251076,-0.00265637,-0.00139504,0.00026119,0.00013012,0.000
 01457,-0.00078693,0.00080830,-0.00004688,-0.00006860,0.00000677,-0.000
 00497,-0.00014425,-0.00014426,0.00009937,-0.00032561,0.00043457,-0.000
 77700,-0.00004859,0.00072084,0.00032307,-0.11910647,0.12485955,-0.0145
 1276,0.00829724,0.00325054,0.04253006,-0.02534368,-0.05764354,0.000603
 12,0.00237612,-0.00145798,-0.01000665,0.00556486,0.00081676,0.00017057
 ,-0.00017803,-0.00011612,-0.00145141,-0.00150026,0.00022095,-0.0001779
 4,0.00002836,-0.00001925,-0.00062530,0.00043709,0.00014764,0.00009545,
 0.00010280,0.00000675,-0.00006349,-0.00028877,-0.00005655,0.00024774,-
 0.00077704,0.00060431,-0.00028738,-0.00060273,0.00014782,-0.04297430,0
 .02612224,0.05804772,-0.00041429,0.00058150,0.00097379,-0.04981680,0.0
 0379858,0.01545878,0.00018884,0.00028016,-0.00111021,0.00067968,-0.005
 36100,-0.02719052,0.00010466,-0.00024989,0.00020151,0.00175080,0.00000
 065,-0.00022392,-0.00021459,0.00015349,0.00012555,-0.00041586,-0.00015
 024,0.00039308,0.00015991,0.00019340,0.00001639,0.00019807,-0.00022349
 ,0.00000439,-0.00016813,0.00004865,0.00028744,0.00056327,-0.00027042,-
 0.00043127,-0.00116743,0.00345717,0.02665494,0.05103696,-0.00064134,0.
 00298399,0.03126838,0.00383387,-0.05260597,-0.04044895,-0.00056503,0.0
 0177861,0.00088457,0.00037394,-0.00487040,-0.01933209,-0.00005132,0.00
 003778,-0.00016524,0.00087251,0.00014820,0.00071485,-0.00009372,0.0000
 6525,-0.00010492,-0.00029460,0.00001112,0.00018936,0.00001868,0.000144
 35,0.00002652,0.00010468,-0.00014647,-0.00001943,-0.00038463,0.0007207
 4,-0.00060258,0.00027106,-0.00510556,0.00312377,0.00021112,-0.00294162
 ,-0.01560366,-0.00014051,0.06134653,0.00062930,-0.00109388,-0.01718284
 ,0.01396156,-0.04052073,-0.28996461,0.00048697,-0.00132581,0.00074852,
 0.00025111,-0.00189210,-0.00857598,-0.00046500,0.00010911,-0.00013598,
 0.00056759,-0.00007102,0.00005232,-0.00020101,0.00003400,-0.00002952,-
 0.00051554,0.00010771,0.00009133,0.00000597,0.00019442,0.00000648,0.00
 012636,-0.00016982,-0.00000468,0.00030449,0.00032312,0.00014773,0.0004
 3118,0.00312395,-0.00009378,0.00019535,-0.00060170,-0.00509612,-0.0135
 6133,0.04210416,0.31771290,0.00170878,0.00916748,0.02768373,0.00058518
 ,-0.00150848,0.00060579,-0.04906746,-0.01062756,-0.03812480,-0.0002791
 2,0.00015141,-0.00072343,-0.00696248,-0.01022739,-0.02621514,-0.001219
 66,0.00074793,0.00015314,-0.00047548,-0.00125790,0.00076737,-0.0008793
 7,-0.00005435,0.00129305,0.00053579,0.00031690,0.00109590,-0.00014214,
 -0.00089686,-0.00021179,0.00077205,-0.00065279,0.00010748,-0.00383338,
 0.00370474,0.00153075,-0.00001767,-0.00026775,-0.00007706,0.00022064,0
 .00012275,-0.00062487,0.06015058,-0.00128692,-0.00592640,-0.01706294,-
 0.00071562,0.00088097,-0.00158669,-0.00960327,-0.06708302,-0.06932818,
 -0.00013854,-0.00027188,-0.00059794,-0.00594073,-0.00662154,-0.0169133
 1,-0.00216285,-0.00074984,0.00020891,0.00200626,0.00024843,0.00018103,
 0.00097769,-0.00016967,0.00099345,-0.00085737,-0.00135118,0.00050543,-
 0.00062579,0.00094535,-0.00003296,-0.00033750,0.00083226,0.00055665,0.
 00265004,-0.00130423,-0.00074690,0.00002139,0.00026005,0.00035208,0.00
 021311,-0.00054410,0.00078369,0.01199527,0.07297302,0.00000817,-0.0027
 0507,-0.01069784,-0.00038328,0.00051158,0.00052188,-0.03410546,-0.0682
 5187,-0.26804925,0.00005046,0.00028642,0.00033127,-0.00186633,-0.00086
 554,0.00123485,-0.00019843,0.00072971,-0.00017286,0.00064860,-0.000415
 28,0.00081897,-0.00013541,-0.00016190,-0.00008999,-0.00056080,-0.00039
 879,0.00024037,0.00009529,0.00031072,-0.00004842,0.00055388,0.00014450
 ,0.00035110,0.00194664,-0.00096904,0.00091781,0.00007063,0.00003844,0.
 00020832,-0.00005491,-0.00069209,0.00036618,0.03658177,0.07769252,0.29
 178051,-0.00144570,0.02183039,-0.01609940,-0.00500018,0.00215290,0.002
 39164,-0.04815777,0.02218636,-0.01340568,-0.00023906,-0.00013946,0.000
 28120,0.00098069,-0.02497440,0.01597844,-0.00426737,-0.00038821,0.0002
 5960,0.00068169,-0.00167629,-0.00057550,0.00030595,-0.00075605,-0.0010
 8306,0.00036154,0.00009040,0.00001769,-0.00023400,-0.00024304,0.000169
 39,0.00007557,-0.00058071,-0.00055160,0.00108671,-0.00045083,0.0002594
 1,0.00010274,0.00175924,-0.00053480,-0.00002859,-0.00038975,0.00020268
 ,-0.00111262,0.00378784,-0.00237971,0.05746388,0.00100543,-0.01332842,
 0.00907324,0.00351985,-0.00059282,-0.00183204,0.02118339,-0.21925652,0
 .11902853,0.00013649,0.00070926,0.00028087,-0.00060886,-0.01648769,0.0
 0872700,-0.00275182,0.00016942,0.00047406,0.00269989,0.00079532,-0.000
 77644,0.00050486,-0.00069842,-0.00057321,-0.00068410,-0.00041729,-0.00
 089730,-0.00003494,0.00056098,0.00010461,0.00026935,0.00030833,-0.0000
 1432,-0.00031180,0.00000832,-0.00038809,-0.00020763,-0.00102787,0.0004
 8211,-0.00004297,0.00025141,-0.00002364,-0.00102792,0.00804670,-0.0053
 3600,-0.02291793,0.24068232,0.00078225,-0.01097014,0.00617532,0.001791
 86,-0.00100932,-0.00056805,-0.01310006,0.12090873,-0.12725280,-0.00002
 552,0.00025030,0.00023146,-0.00076234,-0.00439249,0.00154326,0.0001613
 3,-0.00008273,0.00000243,-0.00052252,0.00027018,0.00083796,-0.00074205
 ,-0.00033812,-0.00008736,0.00042076,0.00023932,-0.00001225,0.00040618,
 -0.00048531,-0.00000128,-0.00053213,0.00054827,0.00001954,-0.00050462,
 -0.00009244,0.00062119,0.00010076,-0.00044771,0.00055162,0.00002606,-0
 .00023620,0.00047193,-0.00308090,0.02524983,-0.01720491,0.01496644,-0.
 12929139,0.13490344,0.00058475,0.00150844,-0.00060563,0.00170574,-0.00
 917095,-0.02768371,-0.00027918,-0.00015146,0.00072332,-0.04906235,0.01
 062550,0.03810285,-0.00122037,-0.00074777,-0.00015287,-0.00695996,0.01
 023207,0.02621389,-0.00087938,0.00005446,-0.00129306,-0.00047531,0.001
 25789,-0.00076731,-0.00014211,0.00089708,0.00021181,0.00053620,-0.0003
 1714,-0.00109546,-0.00001770,0.00026763,0.00007720,0.00022080,-0.00012
 258,0.00062482,0.00077199,0.00065245,-0.00010791,-0.00383370,-0.003705
 09,-0.00152995,0.00024126,0.00014292,0.00009057,0.00009486,0.00001639,
 0.00001804,0.06014643,0.00071541,0.00088098,-0.00158634,0.00128599,-0.
 00592848,-0.01706274,0.00013842,-0.00027164,-0.00059797,0.00960055,-0.
 06710738,-0.06936327,0.00216323,-0.00074964,0.00020882,0.00594037,-0.0
 0662548,-0.01691326,-0.00097765,-0.00016988,0.00099345,-0.00200668,0.0
 0024883,0.00018126,0.00062566,0.00094543,-0.00003293,0.00085745,-0.001
 35132,0.00050565,-0.00002142,0.00025997,0.00035218,-0.00021265,-0.0005
 4384,0.00078371,0.00033753,0.00083254,0.00055650,-0.00265011,-0.001304
 28,-0.00074616,-0.00014288,-0.00010005,0.00017158,-0.00001584,-0.00000
 413,0.00004762,-0.01199395,0.07299912,0.00038271,0.00051085,0.00052186
 ,-0.00000969,-0.00270377,-0.01069138,-0.00005041,0.00028642,0.00033142
 ,0.03408460,-0.06828647,-0.26803507,0.00019858,0.00072966,-0.00017311,
 0.00186584,-0.00086492,0.00123524,0.00013510,-0.00016178,-0.00009005,-
 0.00064898,-0.00041524,0.00081940,-0.00009515,0.00031090,-0.00004842,0
 .00056094,-0.00039888,0.00024049,-0.00007060,0.00003827,0.00020813,0.0
 0005493,-0.00069201,0.00036569,-0.00055403,0.00014433,0.00035134,-0.00
 194569,-0.00096866,0.00091845,-0.00009054,0.00017160,0.00002943,0.0000
 2472,-0.00003883,-0.00000092,-0.03655855,0.07772979,0.29176308,-0.0050
 0071,-0.00215271,-0.00239068,-0.00144472,-0.02182975,0.01610239,-0.000
 23895,0.00013946,-0.00028116,-0.04815383,-0.02217605,0.01340463,-0.004
 26659,0.00038765,-0.00025996,0.00097899,0.02497218,-0.01598210,0.00030
 559,0.00075578,0.00108322,0.00068124,0.00167607,0.00057570,-0.00023403
 ,0.00024329,-0.00016940,0.00036175,-0.00009051,-0.00001756,0.00010291,
 -0.00175921,0.00053480,-0.00002864,0.00038972,-0.00020259,0.00007554,0
 .00058090,0.00055151,0.00108704,0.00045068,-0.00025942,0.00009483,0.00
 001586,-0.00002473,0.00016193,-0.00003478,-0.00003413,-0.00111222,-0.0
 0378531,0.00237908,0.05745989,-0.00352050,-0.00059305,-0.00183147,-0.0
 0100536,-0.01332907,0.00907570,-0.00013646,0.00070920,0.00028109,-0.02
 117388,-0.21921814,0.11904584,0.00275158,0.00016938,0.00047400,0.00061
 030,-0.01648711,0.00872990,-0.00050471,-0.00069840,-0.00057341,-0.0026
 9981,0.00079529,-0.00077660,0.00003494,0.00056105,0.00010463,0.0006842
 4,-0.00041753,-0.00089737,0.00020771,-0.00102796,0.00048208,0.00004296
 ,0.00025138,-0.00002364,-0.00026929,0.00030813,-0.00001432,0.00031184,
 0.00000843,-0.00038808,-0.00001641,-0.00000412,-0.00003884,0.00003478,
 -0.00005101,-0.00000460,0.00102816,0.00805000,-0.00534035,0.02290735,0
 .24064162,-0.00179143,-0.00100921,-0.00056716,-0.00078209,-0.01096583,
 0.00617386,0.00002566,0.00025024,0.00023162,0.01309955,0.12092580,-0.1
 2729279,-0.00016130,-0.00008302,0.00000199,0.00076192,-0.00439142,0.00
 154421,0.00074194,-0.00033804,-0.00008746,0.00052256,0.00027025,0.0008
 3829,-0.00040608,-0.00048531,-0.00000134,-0.00042082,0.00023928,-0.000
 01216,-0.00010070,-0.00044751,0.00055142,-0.00002598,-0.00023629,0.000
 47181,0.00053204,0.00054820,0.00001923,0.00050444,-0.00009260,0.000621
 52,-0.00001805,0.00004764,-0.00000093,0.00003409,-0.00000457,-0.000012
 15,0.00307995,0.02524633,-0.01720897,-0.01496505,-0.12931008,0.1349476
 2,-0.00004750,-0.00025580,0.00010702,0.00032971,0.00006567,-0.00003857
 ,0.00117226,0.00120955,-0.00038991,0.00038267,0.00116540,-0.00008653,0
 .00418686,0.02678132,0.00132179,-0.00458364,0.00269703,0.00012712,-0.0
 5833971,-0.00136565,0.00013080,-0.00154135,-0.00000844,-0.00001813,0.0
 0491429,-0.02782013,-0.00133906,-0.00454775,-0.00264532,-0.00012432,0.
 00000634,-0.00001678,0.00000005,0.00006430,-0.00003105,-0.00004043,-0.
 00002808,-0.00009987,0.00002590,-0.00001685,-0.00000564,-0.00001856,-0
 .00015504,-0.00000482,-0.00023397,-0.00056260,-0.00043440,0.00062597,-
 0.00011131,0.00007996,0.00003714,-0.00029222,0.00020476,0.00003471,0.0
 5848183,0.00018891,0.00014016,-0.00012293,-0.00021884,0.00005264,-0.00
 004494,-0.00163060,0.00059880,0.00046908,-0.00059646,-0.00054549,0.000
 00498,-0.00277350,-0.01307605,-0.00058323,0.00326348,0.00045373,-0.000
 27908,-0.00118190,-0.32870853,-0.01247844,0.00025475,0.00097689,0.0000
 9074,0.00327959,-0.01132600,-0.00075358,-0.00350982,0.00076676,-0.0002
 5239,0.00004147,0.00000439,-0.00003227,-0.00003495,-0.00000683,0.00001
 660,0.00005585,0.00007015,-0.00000288,0.00000390,0.00002447,0.00002713
 ,0.00053376,0.00003158,-0.00000323,0.00080085,0.00045493,-0.00012061,0
 .00012934,-0.00010102,-0.00002898,0.00020781,-0.00015560,-0.00002657,0
 .00148888,0.35057778,0.00015514,0.00019258,-0.00018855,-0.00007766,-0.
 00000935,-0.00000442,-0.00011429,-0.00084636,-0.00284347,0.00014302,-0
 .00010073,-0.00000313,0.00041613,-0.00040475,0.00398864,-0.00000722,-0
 .00024156,0.00689587,-0.00013669,-0.01222313,-0.03820068,0.00011389,0.
 00014943,-0.00115443,0.00008407,-0.00076346,0.00357860,-0.00022857,-0.
 00023053,0.00745515,0.00005905,-0.00004314,0.00002318,0.00005629,-0.00
 003175,-0.00002140,0.00000151,0.00000533,-0.00000042,-0.00002057,-0.00
 000783,-0.00001898,-0.00048700,-0.00030893,-0.00050566,0.00012580,0.00
 082650,-0.00013069,-0.00003280,-0.00005160,0.00002799,0.00007397,-0.00
 003237,-0.00005056,-0.00011496,0.01391896,0.02613025,0.00032970,-0.000
 06567,0.00003852,-0.00004752,0.00025578,-0.00010691,0.00038273,-0.0011
 6545,0.00008657,0.00117212,-0.00120925,0.00038985,-0.00458359,-0.00269
 699,-0.00012761,0.00418763,-0.02678115,-0.00132209,-0.00154131,0.00000
 838,0.00001811,-0.05833988,0.00137019,-0.00013150,-0.00454788,0.002645
 20,0.00012373,0.00491378,0.02782052,0.00133937,-0.00002809,0.00009986,
 -0.00002589,-0.00001685,0.00000565,0.00001856,0.00000635,0.00001678,-0
 .00000007,0.00006432,0.00003107,0.00004043,-0.00011127,-0.00007991,-0.
 00003715,-0.00029226,-0.00020478,-0.00003472,-0.00015507,0.00000486,0.
 00023417,-0.00056238,0.00043413,-0.00062601,0.00010641,0.00000075,-0.0
 0000436,0.05848172,0.00021883,0.00005262,-0.00004498,-0.00018895,0.000
 14013,-0.00012280,0.00059645,-0.00054554,0.00000501,0.00163064,0.00059
 879,0.00046902,-0.00326353,0.00045369,-0.00027936,0.00277378,-0.013076
 21,-0.00058330,-0.00025478,0.00097689,0.00009076,0.00118676,-0.3287076
 8,-0.01248199,0.00350976,0.00076685,-0.00025232,-0.00327932,-0.0113256
 9,-0.00075382,-0.00005586,0.00007015,-0.00000287,-0.00000388,0.0000244
 7,0.00002713,-0.00004147,0.00000439,-0.00003226,0.00003497,-0.00000681
 ,0.00001660,-0.00012932,-0.00010100,-0.00002899,-0.00020784,-0.0001556
 1,-0.00002657,-0.00053398,0.00003158,-0.00000311,-0.00080084,0.0004547
 5,-0.00012067,-0.00000075,-0.00013165,0.00003047,-0.00149394,0.3505769
 6,0.00007772,-0.00000935,-0.00000441,-0.00015501,0.00019257,-0.0001886
 9,-0.00014301,-0.00010080,-0.00000315,0.00011430,-0.00084597,-0.002842
 80,0.00000666,-0.00024147,0.00689598,-0.00041591,-0.00040648,0.0039884
 6,-0.00011379,0.00014944,-0.00115439,0.00013615,-0.01222690,-0.0382013
 2,0.00022799,-0.00023049,0.00745516,-0.00008421,-0.00076211,0.00357874
 ,-0.00000151,0.00000534,-0.00000043,0.00002057,-0.00000783,-0.00001899
 ,-0.00005899,-0.00004311,0.00002321,-0.00005629,-0.00003177,-0.0000214
 0,0.00003276,-0.00005161,0.00002798,-0.00007398,-0.00003239,-0.0000506
 1,0.00048675,-0.00030917,-0.00050577,-0.00012586,0.00082658,-0.0001309
 4,0.00000441,0.00003045,-0.00092474,0.00011630,0.01392280,0.02613069,-
 0.00029297,-0.00037199,-0.00013397,0.00003853,-0.00005009,0.00004702,-
 0.00059759,0.00113193,0.00015176,0.00003648,-0.00000319,-0.00005637,-0
 .00287644,-0.00398525,-0.00028459,0.00008141,-0.00106853,-0.00000886,-
 0.01769416,0.01675333,0.00067965,0.00200898,-0.00036815,-0.00001858,-0
 .26567041,0.12124431,0.00517270,0.00356430,-0.00245957,-0.00013454,-0.
 00014730,0.00008840,0.00005458,0.00001044,0.00001637,0.00002313,-0.000
 01809,0.00002587,-0.00000565,0.00001166,-0.00000236,-0.00000417,-0.000
 07512,-0.00004371,-0.00004896,0.00001638,-0.00003052,0.00003681,0.0000
 2171,0.00001337,0.00001689,0.00000822,0.00004316,-0.00000253,0.0005547
 6,-0.00048896,-0.00000991,0.00002658,-0.00018569,-0.00000519,0.2804457
 9,-0.00013749,-0.00014705,-0.00002051,0.00003368,-0.00003595,-0.000023
 55,-0.00049979,0.00055383,0.00008470,0.00011788,0.00013175,0.00010959,
 -0.00336123,-0.00065465,-0.00046140,-0.00102141,-0.00101094,0.00001145
 ,-0.01450650,0.01157821,0.00031309,-0.00114372,-0.00579431,-0.00056905
 ,0.12135965,-0.12932160,-0.00385068,0.02859986,-0.00923777,-0.00053213
 ,-0.00006194,0.00005355,0.00001785,-0.00000059,-0.00000344,0.00000176,
 0.00002241,0.00001381,0.00000637,0.00001061,0.00000776,0.00000730,0.00
 003189,-0.00001290,-0.00002249,0.00003447,-0.00000900,0.00002729,-0.00
 003750,0.00002155,0.00000366,-0.00006310,0.00004177,-0.00004392,0.0004
 1623,0.00059404,0.00021107,0.00142018,-0.00069515,-0.00003880,-0.13073
 616,0.13331819,-0.00005871,-0.00009807,-0.00008056,-0.00000374,0.00008
 885,-0.00001745,-0.00011123,-0.00008160,0.00016559,0.00003507,-0.00015
 068,-0.00089937,0.00005765,-0.00045032,0.00762614,-0.00004289,0.000117
 26,-0.00093168,-0.00079221,0.00048728,0.00323539,-0.00011754,-0.000570
 35,0.00703728,0.00511423,-0.00381076,-0.03679968,0.00132360,-0.0005756
 6,0.00308030,-0.00002811,0.00002237,-0.00001239,0.00003274,-0.00001684
 ,-0.00001466,-0.00001644,-0.00001019,0.00000616,-0.00001892,0.00001125
 ,0.00000120,-0.00005411,-0.00000958,0.00000120,0.00000078,0.00004667,-
 0.00002703,0.00014396,-0.00010385,-0.00006002,0.00000815,0.00016465,-0
 .00001009,0.00002337,0.00018056,-0.00420538,0.00003381,-0.00000941,0.0
 0015282,-0.00549945,0.00457856,0.02555701,0.00003853,0.00005010,-0.000
 04703,-0.00029297,0.00037202,0.00013396,0.00003649,0.00000316,0.000056
 43,-0.00059764,-0.00113198,-0.00015180,0.00008138,0.00106858,0.0000089
 2,-0.00287657,0.00398524,0.00028409,0.00200895,0.00036832,0.00001831,-
 0.01769426,-0.01675390,-0.00068086,0.00356482,0.00245982,0.00013460,-0
 .26566411,-0.12124594,-0.00518497,-0.00001809,-0.00002587,0.00000566,0
 .00001166,0.00000236,0.00000417,-0.00014732,-0.00008841,-0.00005455,0.
 00001043,-0.00001637,-0.00002313,0.00002171,-0.00001335,-0.00001689,0.
 00000820,-0.00004318,0.00000252,-0.00007508,0.00004369,0.00004896,0.00
 001637,0.00003052,-0.00003681,0.00002661,0.00018570,0.00000518,0.00055
 476,0.00048895,0.00001015,0.00054685,-0.00047745,-0.00003000,0.2804392
 8,-0.00003368,-0.00003594,-0.00002355,0.00013749,-0.00014705,-0.000020
 49,-0.00011786,0.00013173,0.00010960,0.00049977,0.00055385,0.00008471,
 0.00102141,-0.00101090,0.00001149,0.00336119,-0.00065454,-0.00046128,0
 .00114389,-0.00579429,-0.00056898,0.01450599,0.01157814,0.00031390,-0.
 02859952,-0.00923815,-0.00053370,-0.12136141,-0.12932596,-0.00385753,-
 0.00002241,0.00001381,0.00000638,-0.00001060,0.00000776,0.00000730,0.0
 0006194,0.00005355,0.00001784,0.00000060,-0.00000344,0.00000176,0.0000
 3749,0.00002155,0.00000364,0.00006310,0.00004178,-0.00004392,-0.000031
 92,-0.00001289,-0.00002249,-0.00003448,-0.00000900,0.00002729,-0.00142
 016,-0.00069516,-0.00003884,-0.00041623,0.00059404,0.00021109,0.000477
 43,0.00060831,0.00018986,0.13073796,0.13332280,0.00000375,0.00008889,-
 0.00001744,0.00005866,-0.00009811,-0.00008060,-0.00003507,-0.00015073,
 -0.00089948,0.00011124,-0.00008164,0.00016558,0.00004300,0.00011725,-0
 .00093161,-0.00005802,-0.00045009,0.00762620,0.00011729,-0.00057032,0.
 00703733,0.00079108,0.00048649,0.00323545,-0.00132359,-0.00057543,0.00
 308021,-0.00512655,-0.00381781,-0.03680066,0.00001645,-0.00001020,0.00
 000615,0.00001891,0.00001126,0.00000120,0.00002810,0.00002237,-0.00001
 238,-0.00003275,-0.00001684,-0.00001466,-0.00014403,-0.00010380,-0.000
 06001,-0.00000816,0.00016463,-0.00001008,0.00005410,-0.00000960,0.0000
 0119,-0.00000080,0.00004668,-0.00002702,-0.00003383,-0.00000939,0.0001
 5284,-0.00002312,0.00018065,-0.00420538,0.00003023,0.00018983,-0.00380
 475,0.00551311,0.00458593,0.02555793\\0.00003881,0.00011532,-0.0000454
 8,0.00003672,-0.00011614,0.00004470,-0.00008349,0.00005873,0.00006845,
 -0.00008092,-0.00005775,-0.00006703,0.00007280,-0.00009092,-0.00004061
 ,0.00006937,0.00008993,0.00004026,0.00001537,0.00012117,0.00000254,0.0
 0001530,-0.00011998,-0.00000236,0.00001703,-0.00002604,0.00000873,0.00
 001698,0.00002558,-0.00000861,-0.00003212,-0.00004890,-0.00001166,-0.0
 0000829,-0.00000182,-0.00002305,-0.00003076,0.00004811,0.00001186,-0.0
 0000883,0.00000202,0.00002282,-0.00001906,-0.00004280,-0.00000541,0.00
 004427,-0.00005300,-0.00002056,-0.00001829,0.00004369,0.00000510,0.000
 04448,0.00005237,0.00002002,-0.00003460,-0.00004039,-0.00000570,-0.000
 03437,0.00004042,0.00000594,-0.00001023,-0.00001676,-0.00000145,-0.000
 01019,0.00001716,0.00000152\\\@


 A MUSTACHE HAIR ACROSS A CHIP IS LIKE A REDWOOD
 TREE FALLING THROUGH A HOUSING PROJECT.
 - AN IBM MANAGER IN EAST FISHKILL, NEW YORK
   AS QUOTED IN "FROM SANDS TO CIRCUITS", IBM INNOVATION JANUARY 1985.
 Job cpu time:       0 days  3 hours  9 minutes 48.1 seconds.
 Elapsed time:       0 days  0 hours 11 minutes 55.3 seconds.
 File lengths (MBytes):  RWF=    178 Int=      0 D2E=      0 Chk=      9 Scr=      1
 Normal termination of Gaussian 16 at Sat Sep 27 21:52:50 2025.
