 Entering Gaussian System, Link 0=g16
 Input=TRDE0167.gjf
 Output=TRDE0167.log
 Initial command:
 /usr/local/g16/l1.exe "/dados_01/scratch/Gau-2306415.inp" -scrdir="/dados_01/scratch/"
 Entering Link 1 = /usr/local/g16/l1.exe PID=   2306416.
  
 Copyright (c) 1988-2017, Gaussian, Inc.  All Rights Reserved.
  
 This is part of the Gaussian(R) 16 program.  It is based on
 the Gaussian(R) 09 system (copyright 2009, Gaussian, Inc.),
 the Gaussian(R) 03 system (copyright 2003, Gaussian, Inc.),
 the Gaussian(R) 98 system (copyright 1998, Gaussian, Inc.),
 the Gaussian(R) 94 system (copyright 1995, Gaussian, Inc.),
 the Gaussian 92(TM) system (copyright 1992, Gaussian, Inc.),
 the Gaussian 90(TM) system (copyright 1990, Gaussian, Inc.),
 the Gaussian 88(TM) system (copyright 1988, Gaussian, Inc.),
 the Gaussian 86(TM) system (copyright 1986, Carnegie Mellon
 University), and the Gaussian 82(TM) system (copyright 1983,
 Carnegie Mellon University). Gaussian is a federally registered
 trademark of Gaussian, Inc.
  
 This software contains proprietary and confidential information,
 including trade secrets, belonging to Gaussian, Inc.
  
 This software is provided under written license and may be
 used, copied, transmitted, or stored only in accord with that
 written license.
  
 The following legend is applicable only to US Government
 contracts under FAR:
  
                    RESTRICTED RIGHTS LEGEND
  
 Use, reproduction and disclosure by the US Government is
 subject to restrictions as set forth in subparagraphs (a)
 and (c) of the Commercial Computer Software - Restricted
 Rights clause in FAR 52.227-19.
  
 Gaussian, Inc.
 340 Quinnipiac St., Bldg. 40, Wallingford CT 06492
  
  
 ---------------------------------------------------------------
 Warning -- This program may not be used in any manner that
 competes with the business of Gaussian, Inc. or will provide
 assistance to any competitor of Gaussian, Inc.  The licensee
 of this program is prohibited from giving any competitor of
 Gaussian, Inc. access to this program.  By using this program,
 the user acknowledges that Gaussian, Inc. is engaged in the
 business of creating and licensing software in the field of
 computational chemistry and represents and warrants to the
 licensee that it is not a competitor of Gaussian, Inc. and that
 it will not use this program in any manner prohibited above.
 ---------------------------------------------------------------
  

 Cite this work as:
 Gaussian 16, Revision B.01,
 M. J. Frisch, G. W. Trucks, H. B. Schlegel, G. E. Scuseria, 
 M. A. Robb, J. R. Cheeseman, G. Scalmani, V. Barone, 
 G. A. Petersson, H. Nakatsuji, X. Li, M. Caricato, A. V. Marenich, 
 J. Bloino, B. G. Janesko, R. Gomperts, B. Mennucci, H. P. Hratchian, 
 J. V. Ortiz, A. F. Izmaylov, J. L. Sonnenberg, D. Williams-Young, 
 F. Ding, F. Lipparini, F. Egidi, J. Goings, B. Peng, A. Petrone, 
 T. Henderson, D. Ranasinghe, V. G. Zakrzewski, J. Gao, N. Rega, 
 G. Zheng, W. Liang, M. Hada, M. Ehara, K. Toyota, R. Fukuda, 
 J. Hasegawa, M. Ishida, T. Nakajima, Y. Honda, O. Kitao, H. Nakai, 
 T. Vreven, K. Throssell, J. A. Montgomery, Jr., J. E. Peralta, 
 F. Ogliaro, M. J. Bearpark, J. J. Heyd, E. N. Brothers, K. N. Kudin, 
 V. N. Staroverov, T. A. Keith, R. Kobayashi, J. Normand, 
 K. Raghavachari, A. P. Rendell, J. C. Burant, S. S. Iyengar, 
 J. Tomasi, M. Cossi, J. M. Millam, M. Klene, C. Adamo, R. Cammi, 
 J. W. Ochterski, R. L. Martin, K. Morokuma, O. Farkas, 
 J. B. Foresman, and D. J. Fox, Gaussian, Inc., Wallingford CT, 2016.
 
 ******************************************
 Gaussian 16:  ES64L-G16RevB.01 20-Dec-2017
                27-Sep-2025 
 ******************************************
 %nprocs=16
 Will use up to   16 processors via shared memory.
 %mem=40GB
 %chk=TRDE0167.chk
 ----------------------------------------------------------------------
 # opt freq=noraman M08HX/6-311++G** scf=xqc Empiricaldispersion=pfd In
 t(Grid=ultraFine)
 ----------------------------------------------------------------------
 1/18=20,19=15,26=4,38=1/1,3;
 2/9=110,12=2,17=6,18=5,40=1/2;
 3/5=4,6=6,7=1111,11=2,25=1,30=1,71=1,74=-74,75=-5,124=11/1,2,3;
 4//1;
 5/5=2,8=3,13=1,38=5/2,8;
 6/7=2,8=2,9=2,10=2,28=1/1;
 7//1,2,3,16;
 1/18=20,19=15,26=4/3(2);
 2/9=110/2;
 99//99;
 2/9=110/2;
 3/5=4,6=6,7=1111,11=2,25=1,30=1,71=1,74=-74,75=-5,124=11/1,2,3;
 4/5=5,16=3,69=1/1;
 5/5=2,8=3,13=1,38=5/2,8;
 7//1,2,3,16;
 1/18=20,19=15,26=4/3(-5);
 2/9=110/2;
 6/7=2,8=2,9=2,10=2,19=2,28=1/1;
 99/9=1/99;
 --------
 TRDE0167
 --------
 Symbolic Z-matrix:
 Charge =  0 Multiplicity = 1
 C                     0.       -0.7241   -0.2643 
 C                     0.        0.7242    0.2644 
 C                     1.2652   -1.4663    0.1853 
 C                    -1.2653   -1.4664    0.1851 
 C                     1.2652    1.4664   -0.1853 
 C                    -1.2652    1.4663   -0.1853 
 C                     2.5288   -0.7232   -0.2433 
 C                    -2.5289   -0.7231   -0.2432 
 C                     2.5289    0.723     0.2433 
 C                    -2.5288    0.7231    0.2433 
 H                     0.0002   -0.6944   -1.3636 
 H                     0.0001    0.6946    1.3637 
 H                     1.2783   -2.4766   -0.2406 
 H                     1.2647   -1.5807    1.2768 
 H                    -1.2647   -1.581     1.2764 
 H                    -1.2782   -2.4765   -0.2411 
 H                     1.2783    2.4766    0.2405 
 H                     1.2646    1.5808   -1.2767 
 H                    -1.2647    1.5807   -1.2767 
 H                    -1.2782    2.4765    0.2405 
 H                     2.6064   -0.7387   -1.3374 
 H                     3.4115   -1.2428    0.1462 
 H                    -3.4116   -1.2427    0.1465 
 H                    -2.6068   -0.7387   -1.3373 
 H                     2.6064    0.7387    1.3375 
 H                     3.4115    1.2426   -0.1461 
 H                    -3.4115    1.2428   -0.1461 
 H                    -2.6064    0.7387    1.3374 
 

 GradGradGradGradGradGradGradGradGradGradGradGradGradGradGradGradGradGrad
 Berny optimization.
 Initialization pass.
                           ----------------------------
                           !    Initial Parameters    !
                           ! (Angstroms and Degrees)  !
 --------------------------                            --------------------------
 ! Name  Definition              Value          Derivative Info.                !
 --------------------------------------------------------------------------------
 ! R1    R(1,2)                  1.5418         estimate D2E/DX2                !
 ! R2    R(1,3)                  1.5342         estimate D2E/DX2                !
 ! R3    R(1,4)                  1.5343         estimate D2E/DX2                !
 ! R4    R(1,11)                 1.0997         estimate D2E/DX2                !
 ! R5    R(2,5)                  1.5342         estimate D2E/DX2                !
 ! R6    R(2,6)                  1.5342         estimate D2E/DX2                !
 ! R7    R(2,12)                 1.0997         estimate D2E/DX2                !
 ! R8    R(3,7)                  1.5273         estimate D2E/DX2                !
 ! R9    R(3,13)                 1.0965         estimate D2E/DX2                !
 ! R10   R(3,14)                 1.0975         estimate D2E/DX2                !
 ! R11   R(4,8)                  1.5273         estimate D2E/DX2                !
 ! R12   R(4,15)                 1.0973         estimate D2E/DX2                !
 ! R13   R(4,16)                 1.0964         estimate D2E/DX2                !
 ! R14   R(5,9)                  1.5275         estimate D2E/DX2                !
 ! R15   R(5,17)                 1.0963         estimate D2E/DX2                !
 ! R16   R(5,18)                 1.0974         estimate D2E/DX2                !
 ! R17   R(6,10)                 1.5273         estimate D2E/DX2                !
 ! R18   R(6,19)                 1.0974         estimate D2E/DX2                !
 ! R19   R(6,20)                 1.0963         estimate D2E/DX2                !
 ! R20   R(7,9)                  1.5259         estimate D2E/DX2                !
 ! R21   R(7,21)                 1.097          estimate D2E/DX2                !
 ! R22   R(7,22)                 1.0958         estimate D2E/DX2                !
 ! R23   R(8,10)                 1.5258         estimate D2E/DX2                !
 ! R24   R(8,23)                 1.0959         estimate D2E/DX2                !
 ! R25   R(8,24)                 1.097          estimate D2E/DX2                !
 ! R26   R(9,25)                 1.0971         estimate D2E/DX2                !
 ! R27   R(9,26)                 1.0957         estimate D2E/DX2                !
 ! R28   R(10,27)                1.0958         estimate D2E/DX2                !
 ! R29   R(10,28)                1.097          estimate D2E/DX2                !
 ! A1    A(2,1,3)              110.729          estimate D2E/DX2                !
 ! A2    A(2,1,4)              110.7345         estimate D2E/DX2                !
 ! A3    A(2,1,11)             108.5069         estimate D2E/DX2                !
 ! A4    A(3,1,4)              111.113          estimate D2E/DX2                !
 ! A5    A(3,1,11)             107.8101         estimate D2E/DX2                !
 ! A6    A(4,1,11)             107.8195         estimate D2E/DX2                !
 ! A7    A(1,2,5)              110.7272         estimate D2E/DX2                !
 ! A8    A(1,2,6)              110.7242         estimate D2E/DX2                !
 ! A9    A(1,2,12)             108.5122         estimate D2E/DX2                !
 ! A10   A(5,2,6)              111.1097         estimate D2E/DX2                !
 ! A11   A(5,2,12)             107.8156         estimate D2E/DX2                !
 ! A12   A(6,2,12)             107.8251         estimate D2E/DX2                !
 ! A13   A(1,3,7)              111.3875         estimate D2E/DX2                !
 ! A14   A(1,3,13)             109.985          estimate D2E/DX2                !
 ! A15   A(1,3,14)             109.9689         estimate D2E/DX2                !
 ! A16   A(7,3,13)             109.2337         estimate D2E/DX2                !
 ! A17   A(7,3,14)             109.2806         estimate D2E/DX2                !
 ! A18   A(13,3,14)            106.874          estimate D2E/DX2                !
 ! A19   A(1,4,8)              111.3895         estimate D2E/DX2                !
 ! A20   A(1,4,15)             109.9613         estimate D2E/DX2                !
 ! A21   A(1,4,16)             109.9727         estimate D2E/DX2                !
 ! A22   A(8,4,15)             109.2796         estimate D2E/DX2                !
 ! A23   A(8,4,16)             109.2459         estimate D2E/DX2                !
 ! A24   A(15,4,16)            106.8811         estimate D2E/DX2                !
 ! A25   A(2,5,9)              111.3801         estimate D2E/DX2                !
 ! A26   A(2,5,17)             109.9845         estimate D2E/DX2                !
 ! A27   A(2,5,18)             109.9681         estimate D2E/DX2                !
 ! A28   A(9,5,17)             109.2429         estimate D2E/DX2                !
 ! A29   A(9,5,18)             109.2837         estimate D2E/DX2                !
 ! A30   A(17,5,18)            106.8707         estimate D2E/DX2                !
 ! A31   A(2,6,10)             111.386          estimate D2E/DX2                !
 ! A32   A(2,6,19)             109.9729         estimate D2E/DX2                !
 ! A33   A(2,6,20)             109.9769         estimate D2E/DX2                !
 ! A34   A(10,6,19)            109.2807         estimate D2E/DX2                !
 ! A35   A(10,6,20)            109.2426         estimate D2E/DX2                !
 ! A36   A(19,6,20)            106.8707         estimate D2E/DX2                !
 ! A37   A(3,7,9)              111.8211         estimate D2E/DX2                !
 ! A38   A(3,7,21)             109.363          estimate D2E/DX2                !
 ! A39   A(3,7,22)             109.6327         estimate D2E/DX2                !
 ! A40   A(9,7,21)             109.3572         estimate D2E/DX2                !
 ! A41   A(9,7,22)             109.6334         estimate D2E/DX2                !
 ! A42   A(21,7,22)            106.9076         estimate D2E/DX2                !
 ! A43   A(4,8,10)             111.8273         estimate D2E/DX2                !
 ! A44   A(4,8,23)             109.6285         estimate D2E/DX2                !
 ! A45   A(4,8,24)             109.3614         estimate D2E/DX2                !
 ! A46   A(10,8,23)            109.6368         estimate D2E/DX2                !
 ! A47   A(10,8,24)            109.3591         estimate D2E/DX2                !
 ! A48   A(23,8,24)            106.9012         estimate D2E/DX2                !
 ! A49   A(5,9,7)              111.8224         estimate D2E/DX2                !
 ! A50   A(5,9,25)             109.3499         estimate D2E/DX2                !
 ! A51   A(5,9,26)             109.6263         estimate D2E/DX2                !
 ! A52   A(7,9,25)             109.3683         estimate D2E/DX2                !
 ! A53   A(7,9,26)             109.6438         estimate D2E/DX2                !
 ! A54   A(25,9,26)            106.904          estimate D2E/DX2                !
 ! A55   A(6,10,8)             111.8258         estimate D2E/DX2                !
 ! A56   A(6,10,27)            109.6287         estimate D2E/DX2                !
 ! A57   A(6,10,28)            109.3596         estimate D2E/DX2                !
 ! A58   A(8,10,27)            109.6421         estimate D2E/DX2                !
 ! A59   A(8,10,28)            109.3589         estimate D2E/DX2                !
 ! A60   A(27,10,28)           106.8992         estimate D2E/DX2                !
 ! D1    D(3,1,2,5)             56.2946         estimate D2E/DX2                !
 ! D2    D(3,1,2,6)            179.9979         estimate D2E/DX2                !
 ! D3    D(3,1,2,12)           -61.8488         estimate D2E/DX2                !
 ! D4    D(4,1,2,5)           -179.9894         estimate D2E/DX2                !
 ! D5    D(4,1,2,6)            -56.2861         estimate D2E/DX2                !
 ! D6    D(4,1,2,12)            61.8671         estimate D2E/DX2                !
 ! D7    D(11,1,2,5)           -61.84           estimate D2E/DX2                !
 ! D8    D(11,1,2,6)            61.8632         estimate D2E/DX2                !
 ! D9    D(11,1,2,12)         -179.9835         estimate D2E/DX2                !
 ! D10   D(2,1,3,7)            -55.7682         estimate D2E/DX2                !
 ! D11   D(2,1,3,13)          -177.0257         estimate D2E/DX2                !
 ! D12   D(2,1,3,14)            65.5376         estimate D2E/DX2                !
 ! D13   D(4,1,3,7)           -179.2665         estimate D2E/DX2                !
 ! D14   D(4,1,3,13)            59.476          estimate D2E/DX2                !
 ! D15   D(4,1,3,14)           -57.9606         estimate D2E/DX2                !
 ! D16   D(11,1,3,7)            62.7901         estimate D2E/DX2                !
 ! D17   D(11,1,3,13)          -58.4674         estimate D2E/DX2                !
 ! D18   D(11,1,3,14)         -175.904          estimate D2E/DX2                !
 ! D19   D(2,1,4,8)             55.7479         estimate D2E/DX2                !
 ! D20   D(2,1,4,15)           -65.5528         estimate D2E/DX2                !
 ! D21   D(2,1,4,16)           177.0137         estimate D2E/DX2                !
 ! D22   D(3,1,4,8)            179.243          estimate D2E/DX2                !
 ! D23   D(3,1,4,15)            57.9423         estimate D2E/DX2                !
 ! D24   D(3,1,4,16)           -59.4912         estimate D2E/DX2                !
 ! D25   D(11,1,4,8)           -62.8193         estimate D2E/DX2                !
 ! D26   D(11,1,4,15)          175.88           estimate D2E/DX2                !
 ! D27   D(11,1,4,16)           58.4465         estimate D2E/DX2                !
 ! D28   D(1,2,5,9)            -55.7645         estimate D2E/DX2                !
 ! D29   D(1,2,5,17)          -177.0284         estimate D2E/DX2                !
 ! D30   D(1,2,5,18)            65.5397         estimate D2E/DX2                !
 ! D31   D(6,2,5,9)           -179.2459         estimate D2E/DX2                !
 ! D32   D(6,2,5,17)            59.4902         estimate D2E/DX2                !
 ! D33   D(6,2,5,18)           -57.9417         estimate D2E/DX2                !
 ! D34   D(12,2,5,9)            62.8024         estimate D2E/DX2                !
 ! D35   D(12,2,5,17)          -58.4614         estimate D2E/DX2                !
 ! D36   D(12,2,5,18)         -175.8933         estimate D2E/DX2                !
 ! D37   D(1,2,6,10)            55.7689         estimate D2E/DX2                !
 ! D38   D(1,2,6,19)           -65.5387         estimate D2E/DX2                !
 ! D39   D(1,2,6,20)           177.0311         estimate D2E/DX2                !
 ! D40   D(5,2,6,10)           179.2521         estimate D2E/DX2                !
 ! D41   D(5,2,6,19)            57.9445         estimate D2E/DX2                !
 ! D42   D(5,2,6,20)           -59.4857         estimate D2E/DX2                !
 ! D43   D(12,2,6,10)          -62.802          estimate D2E/DX2                !
 ! D44   D(12,2,6,19)          175.8904         estimate D2E/DX2                !
 ! D45   D(12,2,6,20)           58.4601         estimate D2E/DX2                !
 ! D46   D(1,3,7,9)             54.6149         estimate D2E/DX2                !
 ! D47   D(1,3,7,21)           -66.6609         estimate D2E/DX2                !
 ! D48   D(1,3,7,22)           176.4249         estimate D2E/DX2                !
 ! D49   D(13,3,7,9)           176.3096         estimate D2E/DX2                !
 ! D50   D(13,3,7,21)           55.0338         estimate D2E/DX2                !
 ! D51   D(13,3,7,22)          -61.8804         estimate D2E/DX2                !
 ! D52   D(14,3,7,9)           -67.0914         estimate D2E/DX2                !
 ! D53   D(14,3,7,21)          171.6329         estimate D2E/DX2                !
 ! D54   D(14,3,7,22)           54.7187         estimate D2E/DX2                !
 ! D55   D(1,4,8,10)           -54.5906         estimate D2E/DX2                !
 ! D56   D(1,4,8,23)          -176.4062         estimate D2E/DX2                !
 ! D57   D(1,4,8,24)            66.6905         estimate D2E/DX2                !
 ! D58   D(15,4,8,10)           67.1067         estimate D2E/DX2                !
 ! D59   D(15,4,8,23)          -54.7089         estimate D2E/DX2                !
 ! D60   D(15,4,8,24)         -171.6122         estimate D2E/DX2                !
 ! D61   D(16,4,8,10)         -176.2793         estimate D2E/DX2                !
 ! D62   D(16,4,8,23)           61.905          estimate D2E/DX2                !
 ! D63   D(16,4,8,24)          -54.9983         estimate D2E/DX2                !
 ! D64   D(2,5,9,7)             54.613          estimate D2E/DX2                !
 ! D65   D(2,5,9,25)           -66.6686         estimate D2E/DX2                !
 ! D66   D(2,5,9,26)           176.4327         estimate D2E/DX2                !
 ! D67   D(17,5,9,7)           176.3084         estimate D2E/DX2                !
 ! D68   D(17,5,9,25)           55.0268         estimate D2E/DX2                !
 ! D69   D(17,5,9,26)          -61.8719         estimate D2E/DX2                !
 ! D70   D(18,5,9,7)           -67.0895         estimate D2E/DX2                !
 ! D71   D(18,5,9,25)          171.6289         estimate D2E/DX2                !
 ! D72   D(18,5,9,26)           54.7302         estimate D2E/DX2                !
 ! D73   D(2,6,10,8)           -54.6166         estimate D2E/DX2                !
 ! D74   D(2,6,10,27)         -176.4381         estimate D2E/DX2                !
 ! D75   D(2,6,10,28)           66.662          estimate D2E/DX2                !
 ! D76   D(19,6,10,8)           67.0937         estimate D2E/DX2                !
 ! D77   D(19,6,10,27)         -54.7278         estimate D2E/DX2                !
 ! D78   D(19,6,10,28)        -171.6277         estimate D2E/DX2                !
 ! D79   D(20,6,10,8)         -176.3061         estimate D2E/DX2                !
 ! D80   D(20,6,10,27)          61.8724         estimate D2E/DX2                !
 ! D81   D(20,6,10,28)         -55.0276         estimate D2E/DX2                !
 ! D82   D(3,7,9,5)            -53.9556         estimate D2E/DX2                !
 ! D83   D(3,7,9,25)            67.3154         estimate D2E/DX2                !
 ! D84   D(3,7,9,26)          -175.7652         estimate D2E/DX2                !
 ! D85   D(21,7,9,5)            67.3235         estimate D2E/DX2                !
 ! D86   D(21,7,9,25)         -171.4055         estimate D2E/DX2                !
 ! D87   D(21,7,9,26)          -54.4862         estimate D2E/DX2                !
 ! D88   D(22,7,9,5)          -175.7652         estimate D2E/DX2                !
 ! D89   D(22,7,9,25)          -54.4942         estimate D2E/DX2                !
 ! D90   D(22,7,9,26)           62.4252         estimate D2E/DX2                !
 ! D91   D(4,8,10,6)            53.9446         estimate D2E/DX2                !
 ! D92   D(4,8,10,27)          175.7585         estimate D2E/DX2                !
 ! D93   D(4,8,10,28)          -67.3343         estimate D2E/DX2                !
 ! D94   D(23,8,10,6)          175.7555         estimate D2E/DX2                !
 ! D95   D(23,8,10,27)         -62.4306         estimate D2E/DX2                !
 ! D96   D(23,8,10,28)          54.4766         estimate D2E/DX2                !
 ! D97   D(24,8,10,6)          -67.3378         estimate D2E/DX2                !
 ! D98   D(24,8,10,27)          54.476          estimate D2E/DX2                !
 ! D99   D(24,8,10,28)         171.3832         estimate D2E/DX2                !
 --------------------------------------------------------------------------------
 Trust Radius=3.00D-01 FncErr=1.00D-07 GrdErr=1.00D-06 EigMax=2.50D+02 EigMin=1.00D-04
 Number of steps in this run=    168 maximum allowed number of steps=    168.
 GradGradGradGradGradGradGradGradGradGradGradGradGradGradGradGradGradGrad

                          Input orientation:                          
 ---------------------------------------------------------------------
 Center     Atomic      Atomic             Coordinates (Angstroms)
 Number     Number       Type             X           Y           Z
 ---------------------------------------------------------------------
      1          6           0        0.000000   -0.724100   -0.264300
      2          6           0        0.000000    0.724200    0.264400
      3          6           0        1.265200   -1.466300    0.185300
      4          6           0       -1.265300   -1.466400    0.185100
      5          6           0        1.265200    1.466400   -0.185300
      6          6           0       -1.265200    1.466300   -0.185300
      7          6           0        2.528800   -0.723200   -0.243300
      8          6           0       -2.528900   -0.723100   -0.243200
      9          6           0        2.528900    0.723000    0.243300
     10          6           0       -2.528800    0.723100    0.243300
     11          1           0        0.000200   -0.694400   -1.363600
     12          1           0        0.000100    0.694600    1.363700
     13          1           0        1.278300   -2.476600   -0.240600
     14          1           0        1.264700   -1.580700    1.276800
     15          1           0       -1.264700   -1.581000    1.276400
     16          1           0       -1.278200   -2.476500   -0.241100
     17          1           0        1.278300    2.476600    0.240500
     18          1           0        1.264600    1.580800   -1.276700
     19          1           0       -1.264700    1.580700   -1.276700
     20          1           0       -1.278200    2.476500    0.240500
     21          1           0        2.606400   -0.738700   -1.337400
     22          1           0        3.411500   -1.242800    0.146200
     23          1           0       -3.411600   -1.242700    0.146500
     24          1           0       -2.606800   -0.738700   -1.337300
     25          1           0        2.606400    0.738700    1.337500
     26          1           0        3.411500    1.242600   -0.146100
     27          1           0       -3.411500    1.242800   -0.146100
     28          1           0       -2.606400    0.738700    1.337400
 ---------------------------------------------------------------------
                    Distance matrix (angstroms):
                    1          2          3          4          5
     1  C    0.000000
     2  C    1.541784   0.000000
     3  C    1.534188   2.530865   0.000000
     4  C    1.534260   2.531008   2.530500   0.000000
     5  C    2.530862   1.534217   2.956023   3.891265   0.000000
     6  C    2.530775   1.534169   3.891068   2.955998   2.530400
     7  C    2.528887   2.957627   1.527279   3.889867   2.528715
     8  C    2.528988   2.957646   3.889878   1.527292   4.380920
     9  C    2.957548   2.528988   2.528505   4.380960   1.527508
    10  C    2.957512   2.528888   4.380784   2.528583   3.889811
    11  H    1.099701   2.159354   2.143629   2.143816   2.767250
    12  H    2.159420   1.099698   2.767416   2.767717   2.143724
    13  H    2.169301   3.483417   1.096480   2.769770   3.943410
    14  H    2.169843   2.817265   1.097479   2.757857   3.379727
    15  H    2.169677   2.817367   2.757544   1.097301   4.221801
    16  H    2.169156   3.483361   2.769694   1.096410   4.692383
    17  H    3.483296   2.169223   3.943308   4.692571   1.096349
    18  H    2.817220   2.169785   3.379684   4.221692   1.097379
    19  H    2.817184   2.169804   4.221617   3.379597   2.757646
    20  H    3.483168   2.169083   4.692292   3.943310   2.769565
    21  H    2.818701   3.391041   2.155652   4.223460   2.826414
    22  H    3.475038   3.939720   2.158260   4.682304   3.472213
    23  H    3.475157   3.939748   4.682303   2.158271   5.414958
    24  H    2.819033   3.391301   4.223754   2.155660   4.602386
    25  H    3.390998   2.818701   2.826377   4.602233   2.155756
    26  H    3.939570   3.474994   3.471969   5.414871   2.158293
    27  H    3.939670   3.475024   5.414847   3.472122   4.682206
    28  H    3.390951   2.818663   4.602026   2.826448   4.223440
                    6          7          8          9         10
     6  C    0.000000
     7  C    4.380834   0.000000
     8  C    2.528589   5.057700   0.000000
     9  C    3.889908   1.525868   5.282919   0.000000
    10  C    1.527327   5.282791   1.525836   5.057700   0.000000
    11  H    2.767355   2.765813   2.766309   3.314434   3.314706
    12  H    2.143806   3.314654   3.314791   2.766032   2.766124
    13  H    4.692431   2.153641   4.191604   3.469236   4.996624
    14  H    4.221651   2.154985   4.175797   2.823713   4.557001
    15  H    3.379734   4.175638   2.154850   4.557095   2.823849
    16  H    3.943216   4.191338   2.153756   4.996544   3.469306
    17  H    2.769730   3.469371   4.996681   2.153862   4.191513
    18  H    2.757563   2.823922   4.557052   2.155151   4.175636
    19  H    1.097379   4.557029   2.823795   4.175817   2.154954
    20  H    1.096348   4.996538   3.469244   4.191513   2.153699
    21  H    4.602026   1.096958   5.250602   2.154341   5.568281
    22  H    5.414853   1.095835   5.975791   2.157031   6.257903
    23  H    3.472147   5.975799   1.095906   6.258026   2.157099
    24  H    2.826485   5.250854   1.096981   5.568687   2.154354
    25  H    4.223459   2.154554   5.568373   1.097053   5.250504
    26  H    4.682211   2.157076   6.257936   1.095719   5.975674
    27  H    2.158261   6.257936   2.157122   5.975799   1.095847
    28  H    2.155652   5.568307   2.154336   5.250582   1.096959
                   11         12         13         14         15
    11  H    0.000000
    12  H    3.060635   0.000000
    13  H    2.463921   3.776782   0.000000
    14  H    3.058791   2.604564   1.762193   0.000000
    15  H    3.058698   2.604937   3.093580   2.529400   0.000000
    16  H    2.463776   3.776944   2.556500   3.093997   1.762075
    17  H    3.776495   2.463919   4.976510   4.187575   4.899393
    18  H    2.604380   3.058762   4.187623   4.063920   4.786717
    19  H    2.604535   3.058857   4.899187   4.786719   4.063824
    20  H    3.776513   2.463899   5.594671   4.899095   4.187670
    21  H    2.606708   4.017846   2.446858   3.056659   4.746244
    22  H    3.770571   4.107734   2.494478   2.449731   4.822715
    23  H    3.771129   4.107847   4.864927   4.822821   2.449551
    24  H    2.607509   4.018168   4.395117   4.746683   3.056490
    25  H    4.017710   2.606805   3.820000   2.680198   4.513331
    26  H    4.107462   3.770603   4.288580   3.821573   5.644738
    27  H    4.107888   3.770813   5.986409   5.644789   3.821793
    28  H    4.017902   2.607006   5.283856   4.513170   2.680464
                   16         17         18         19         20
    16  H    0.000000
    17  H    5.594715   0.000000
    18  H    4.898978   1.761971   0.000000
    19  H    4.187305   3.093765   2.529300   0.000000
    20  H    4.976359   2.556500   3.093543   1.761969   0.000000
    21  H    4.394535   3.819918   2.680334   4.513171   5.283692
    22  H    4.864700   4.288749   3.821850   5.644789   5.986265
    23  H    2.494773   5.986417   5.644865   3.821814   4.288669
    24  H    2.446790   5.284090   4.513479   2.680396   3.819966
    25  H    5.283901   2.446948   3.056730   4.746411   4.394710
    26  H    5.986152   2.494546   2.449860   4.822802   4.864695
    27  H    4.288728   4.864766   4.822698   2.449731   2.494483
    28  H    3.820116   4.394813   4.746292   3.056574   2.446887
                   21         22         23         24         25
    21  H    0.000000
    22  H    1.761639   0.000000
    23  H    6.218706   6.823100   0.000000
    24  H    5.213200   6.218909   1.761642   0.000000
    25  H    3.055782   2.448208   6.446763   6.042741   0.000000
    26  H    2.448046   2.502529   7.267532   6.447049   1.761582
    27  H    6.446756   7.267529   2.502664   2.448028   6.218545
    28  H    6.042396   6.446737   2.447966   3.055606   5.212800
                   26         27         28
    26  H    0.000000
    27  H    6.823000   0.000000
    28  H    6.218505   1.761555   0.000000
 Stoichiometry    C10H18
 Framework group  C1[X(C10H18)]
 Deg. of freedom    78
 Full point group                 C1      NOp   1
 Largest Abelian subgroup         C1      NOp   1
 Largest concise Abelian subgroup C1      NOp   1
                         Standard orientation:                         
 ---------------------------------------------------------------------
 Center     Atomic      Atomic             Coordinates (Angstroms)
 Number     Number       Type             X           Y           Z
 ---------------------------------------------------------------------
      1          6           0        0.000009   -0.722467   -0.268705
      2          6           0        0.000009    0.722585    0.268808
      3          6           0        1.265210   -1.467392    0.176361
      4          6           0       -1.265290   -1.467492    0.176168
      5          6           0        1.265208    1.467511   -0.176366
      6          6           0       -1.265192    1.467410   -0.176358
      7          6           0        2.528809   -0.721694   -0.247708
      8          6           0       -2.528891   -0.721598   -0.247591
      9          6           0        2.528909    0.721515    0.247694
     10          6           0       -2.528791    0.721612    0.247710
     11          1           0        0.000205   -0.686071   -1.367804
     12          1           0        0.000113    0.686288    1.367908
     13          1           0        1.278310   -2.475079   -0.255686
     14          1           0        1.264714   -1.588440    1.267144
     15          1           0       -1.264686   -1.588739    1.266750
     16          1           0       -1.278190   -2.474977   -0.256178
     17          1           0        1.278308    2.475099    0.255581
     18          1           0        1.264604    1.588558   -1.267048
     19          1           0       -1.264696    1.588457   -1.267041
     20          1           0       -1.278192    2.474997    0.255588
     21          1           0        2.606405   -0.730528   -1.341882
     22          1           0        3.411510   -1.243657    0.138616
     23          1           0       -3.411590   -1.243563    0.138939
     24          1           0       -2.606795   -0.730532   -1.341766
     25          1           0        2.606413    0.730548    1.341969
     26          1           0        3.411508    1.243478   -0.138536
     27          1           0       -3.411492    1.243674   -0.138514
     28          1           0       -2.606387    0.730546    1.341885
 ---------------------------------------------------------------------
 Rotational constants (GHZ):           2.4168906           1.0206485           0.7701202
 Standard basis: 6-311++G(d,p) (5D, 7F)
 There are   356 symmetry adapted cartesian basis functions of A   symmetry.
 There are   346 symmetry adapted basis functions of A   symmetry.
   346 basis functions,   522 primitive gaussians,   356 cartesian basis functions
    39 alpha electrons       39 beta electrons
       nuclear repulsion energy       579.3782973299 Hartrees.
 NAtoms=   28 NActive=   28 NUniq=   28 SFac= 1.00D+00 NAtFMM=   60 NAOKFM=F Big=F
 Integral buffers will be    131072 words long.
 Raffenetti 2 integral format.
 Two-electron integral symmetry is turned on.
 R6APFD:  NTU= -4 IXU= 1 FactS= 1.050
 Nuclear repulsion after empirical dispersion term =      579.3545202720 Hartrees.
 One-electron integrals computed using PRISM.
 NBasis=   346 RedAO= T EigKep=  4.43D-06  NBF=   346
 NBsUse=   346 1.00D-06 EigRej= -1.00D+00 NBFU=   346
 ExpMin= 3.60D-02 ExpMax= 4.56D+03 ExpMxC= 6.82D+02 IAcc=3 IRadAn=         5 AccDes= 0.00D+00
 Harris functional with IExCor= 1009 and IRadAn=       5 diagonalized for initial guess.
 HarFok:  IExCor= 1009 AccDes= 0.00D+00 IRadAn=         5 IDoV= 1 UseB2=F ITyADJ=14
 ICtDFT=  3500011 ScaDFX=  1.000000  1.000000  1.000000  1.000000
 FoFCou: FMM=F IPFlag=           0 FMFlag=      100000 FMFlg1=           0
         NFxFlg=           0 DoJE=T BraDBF=F KetDBF=T FulRan=T
         wScrn=  0.000000 ICntrl=       500 IOpCl=  0 I1Cent=   200000004 NGrid=           0
         NMat0=    1 NMatS0=      1 NMatT0=    0 NMatD0=    1 NMtDS0=    0 NMtDT0=    0
 Petite list used in FoFCou.
 Requested convergence on RMS density matrix=1.00D-08 within  32 cycles.
 Requested convergence on MAX density matrix=1.00D-06.
 Requested convergence on             energy=1.00D-06.
 No special actions if energy rises.
 SCF Done:  E(RM08HX) =  -391.972162650     A.U. after   12 cycles
            NFock= 12  Conv=0.28D-08     -V/T= 2.0058
 QCSCF skips out because SCF is already converged.

 **********************************************************************

            Population analysis using the SCF Density.

 **********************************************************************

 Orbital symmetries:
       Occupied  (A) (A) (A) (A) (A) (A) (A) (A) (A) (A) (A) (A)
                 (A) (A) (A) (A) (A) (A) (A) (A) (A) (A) (A) (A)
                 (A) (A) (A) (A) (A) (A) (A) (A) (A) (A) (A) (A)
                 (A) (A) (A)
       Virtual   (A) (A) (A) (A) (A) (A) (A) (A) (A) (A) (A) (A)
                 (A) (A) (A) (A) (A) (A) (A) (A) (A) (A) (A) (A)
                 (A) (A) (A) (A) (A) (A) (A) (A) (A) (A) (A) (A)
                 (A) (A) (A) (A) (A) (A) (A) (A) (A) (A) (A) (A)
                 (A) (A) (A) (A) (A) (A) (A) (A) (A) (A) (A) (A)
                 (A) (A) (A) (A) (A) (A) (A) (A) (A) (A) (A) (A)
                 (A) (A) (A) (A) (A) (A) (A) (A) (A) (A) (A) (A)
                 (A) (A) (A) (A) (A) (A) (A) (A) (A) (A) (A) (A)
                 (A) (A) (A) (A) (A) (A) (A) (A) (A) (A) (A) (A)
                 (A) (A) (A) (A) (A) (A) (A) (A) (A) (A) (A) (A)
                 (A) (A) (A) (A) (A) (A) (A) (A) (A) (A) (A) (A)
                 (A) (A) (A) (A) (A) (A) (A) (A) (A) (A) (A) (A)
                 (A) (A) (A) (A) (A) (A) (A) (A) (A) (A) (A) (A)
                 (A) (A) (A) (A) (A) (A) (A) (A) (A) (A) (A) (A)
                 (A) (A) (A) (A) (A) (A) (A) (A) (A) (A) (A) (A)
                 (A) (A) (A) (A) (A) (A) (A) (A) (A) (A) (A) (A)
                 (A) (A) (A) (A) (A) (A) (A) (A) (A) (A) (A) (A)
                 (A) (A) (A) (A) (A) (A) (A) (A) (A) (A) (A) (A)
                 (A) (A) (A) (A) (A) (A) (A) (A) (A) (A) (A) (A)
                 (A) (A) (A) (A) (A) (A) (A) (A) (A) (A) (A) (A)
                 (A) (A) (A) (A) (A) (A) (A) (A) (A) (A) (A) (A)
                 (A) (A) (A) (A) (A) (A) (A) (A) (A) (A) (A) (A)
                 (A) (A) (A) (A) (A) (A) (A) (A) (A) (A) (A) (A)
                 (A) (A) (A) (A) (A) (A) (A) (A) (A) (A) (A) (A)
                 (A) (A) (A) (A) (A) (A) (A) (A) (A) (A) (A) (A)
                 (A) (A) (A) (A) (A) (A) (A)
 The electronic state is 1-A.
 Alpha  occ. eigenvalues --  -10.52317 -10.52281 -10.51563 -10.51563 -10.51537
 Alpha  occ. eigenvalues --  -10.51535 -10.51509 -10.51507 -10.51497 -10.51496
 Alpha  occ. eigenvalues --   -0.95800  -0.90437  -0.86407  -0.83285  -0.80710
 Alpha  occ. eigenvalues --   -0.71448  -0.68911  -0.67733  -0.63579  -0.63050
 Alpha  occ. eigenvalues --   -0.54371  -0.53429  -0.52379  -0.50530  -0.50336
 Alpha  occ. eigenvalues --   -0.48978  -0.48112  -0.44407  -0.43265  -0.41669
 Alpha  occ. eigenvalues --   -0.41583  -0.40991  -0.40008  -0.39193  -0.38429
 Alpha  occ. eigenvalues --   -0.37552  -0.37198  -0.33929  -0.33215
 Alpha virt. eigenvalues --   -0.02572  -0.01951  -0.01586  -0.01407   0.00416
 Alpha virt. eigenvalues --    0.00426   0.00651   0.01229   0.01256   0.02861
 Alpha virt. eigenvalues --    0.03066   0.03722   0.03784   0.04237   0.04510
 Alpha virt. eigenvalues --    0.05837   0.06452   0.06974   0.07764   0.08139
 Alpha virt. eigenvalues --    0.08717   0.09917   0.10466   0.10997   0.11072
 Alpha virt. eigenvalues --    0.11483   0.11656   0.12077   0.12405   0.12730
 Alpha virt. eigenvalues --    0.12891   0.13459   0.14326   0.14337   0.14384
 Alpha virt. eigenvalues --    0.14520   0.14802   0.14867   0.14966   0.15523
 Alpha virt. eigenvalues --    0.16052   0.16251   0.16278   0.16915   0.16941
 Alpha virt. eigenvalues --    0.17778   0.17946   0.18765   0.18782   0.19680
 Alpha virt. eigenvalues --    0.20534   0.20537   0.20908   0.21208   0.22245
 Alpha virt. eigenvalues --    0.23367   0.24157   0.24726   0.25432   0.25552
 Alpha virt. eigenvalues --    0.25962   0.26595   0.26838   0.27005   0.28711
 Alpha virt. eigenvalues --    0.29051   0.29501   0.29949   0.30420   0.31186
 Alpha virt. eigenvalues --    0.31489   0.32824   0.33667   0.33907   0.34171
 Alpha virt. eigenvalues --    0.36521   0.36528   0.36676   0.37168   0.37845
 Alpha virt. eigenvalues --    0.38869   0.38903   0.39593   0.39951   0.40979
 Alpha virt. eigenvalues --    0.41016   0.44061   0.48604   0.49637   0.50628
 Alpha virt. eigenvalues --    0.51388   0.51926   0.52431   0.52693   0.53700
 Alpha virt. eigenvalues --    0.55289   0.57916   0.59071   0.60800   0.61778
 Alpha virt. eigenvalues --    0.64949   0.65523   0.66165   0.68164   0.68896
 Alpha virt. eigenvalues --    0.69037   0.70415   0.71850   0.72115   0.72174
 Alpha virt. eigenvalues --    0.73193   0.73565   0.74070   0.74684   0.76032
 Alpha virt. eigenvalues --    0.76264   0.77427   0.77989   0.78851   0.79251
 Alpha virt. eigenvalues --    0.79676   0.79731   0.79752   0.80223   0.80518
 Alpha virt. eigenvalues --    0.80904   0.81446   0.82017   0.82708   0.83874
 Alpha virt. eigenvalues --    0.85767   0.91291   0.92840   0.92897   0.94223
 Alpha virt. eigenvalues --    0.97193   0.97779   1.00226   1.02054   1.03489
 Alpha virt. eigenvalues --    1.09352   1.09666   1.09732   1.11076   1.19309
 Alpha virt. eigenvalues --    1.23193   1.23973   1.24015   1.25409   1.25719
 Alpha virt. eigenvalues --    1.26476   1.29211   1.29423   1.39499   1.41546
 Alpha virt. eigenvalues --    1.45200   1.47242   1.49113   1.55315   1.56526
 Alpha virt. eigenvalues --    1.57889   1.58842   1.59160   1.60517   1.61784
 Alpha virt. eigenvalues --    1.61984   1.63025   1.64142   1.64283   1.64875
 Alpha virt. eigenvalues --    1.65558   1.65607   1.65688   1.66092   1.66782
 Alpha virt. eigenvalues --    1.68285   1.69383   1.69404   1.69692   1.70162
 Alpha virt. eigenvalues --    1.73711   1.74407   1.74539   1.77345   1.77566
 Alpha virt. eigenvalues --    1.79563   1.80496   1.82276   1.82912   1.84145
 Alpha virt. eigenvalues --    1.84753   1.85132   1.86876   1.87401   1.88582
 Alpha virt. eigenvalues --    1.88846   1.91939   1.92359   1.93689   1.96884
 Alpha virt. eigenvalues --    1.97903   2.02736   2.06058   2.08369   2.08568
 Alpha virt. eigenvalues --    2.11956   2.12491   2.15135   2.15421   2.16365
 Alpha virt. eigenvalues --    2.19908   2.22717   2.25251   2.25365   2.25904
 Alpha virt. eigenvalues --    2.29434   2.31803   2.32132   2.32674   2.34624
 Alpha virt. eigenvalues --    2.37552   2.39164   2.41103   2.41950   2.44346
 Alpha virt. eigenvalues --    2.45331   2.46094   2.48700   2.51643   2.51875
 Alpha virt. eigenvalues --    2.52442   2.52976   2.56585   2.58503   2.58536
 Alpha virt. eigenvalues --    2.60677   2.61472   2.62952   2.64304   2.67376
 Alpha virt. eigenvalues --    2.68400   2.69437   2.70616   2.72846   2.74066
 Alpha virt. eigenvalues --    2.76840   2.77995   2.78407   2.79713   2.80826
 Alpha virt. eigenvalues --    2.81322   2.81999   2.84509   2.84781   2.84869
 Alpha virt. eigenvalues --    2.85412   2.85851   2.86751   2.89253   2.89413
 Alpha virt. eigenvalues --    2.91783   2.99053   2.99185   3.01783   3.02271
 Alpha virt. eigenvalues --    3.03515   3.10618   3.13996   3.14150   3.19060
 Alpha virt. eigenvalues --    3.23760   3.25397   3.27450   3.40595   3.45405
 Alpha virt. eigenvalues --    3.49756   3.52627   3.63125   3.79409   3.82884
 Alpha virt. eigenvalues --    3.83821   3.85624   3.86478   3.90491   3.94328
 Alpha virt. eigenvalues --    3.95681   4.07162   4.13795   4.20918   4.21158
 Alpha virt. eigenvalues --    4.22032   4.32461   4.35126   4.39770   4.44901
 Alpha virt. eigenvalues --    4.47588   4.48395  23.89249  23.94212  23.95297
 Alpha virt. eigenvalues --   23.99899  24.00838  24.01283  24.02873  24.03137
 Alpha virt. eigenvalues --   24.03574  24.03649
          Condensed to atoms (all electrons):
               1          2          3          4          5          6
     1  C   11.469462  -3.464067  -0.970981  -0.969633  -0.630843  -0.630839
     2  C   -3.464067  11.470004  -0.630893  -0.630381  -0.970544  -0.970474
     3  C   -0.970981  -0.630893   8.544412   0.227445   0.550404  -0.237773
     4  C   -0.969633  -0.630381   0.227445   8.542141  -0.237107   0.550032
     5  C   -0.630843  -0.970544   0.550404  -0.237107   8.542363   0.227857
     6  C   -0.630839  -0.970474  -0.237773   0.550032   0.227857   8.543576
     7  C    0.007770   0.319158  -1.047593  -0.195717  -0.408924   0.128391
     8  C    0.008376   0.318633  -0.196019  -1.047775   0.128432  -0.408821
     9  C    0.318974   0.007823  -0.408870   0.128229  -1.046459  -0.196214
    10  C    0.318899   0.007618   0.128334  -0.408835  -0.196308  -1.047349
    11  H    0.790314  -0.148384  -0.085996  -0.085887  -0.114324  -0.114224
    12  H   -0.148576   0.790472  -0.114241  -0.114144  -0.086107  -0.085929
    13  H   -0.126892   0.034991   0.516643  -0.016213   0.023202   0.001527
    14  H    0.187675  -0.169297   0.479094  -0.023225  -0.021561  -0.035302
    15  H    0.187699  -0.169248  -0.023245   0.479061  -0.035346  -0.021576
    16  H   -0.126814   0.034979  -0.016249   0.516514   0.001567   0.023183
    17  H    0.035063  -0.127022   0.023182   0.001517   0.516642  -0.016191
    18  H   -0.169440   0.187908  -0.021537  -0.035281   0.478946  -0.023219
    19  H   -0.169417   0.187782  -0.035306  -0.021493  -0.023275   0.479148
    20  H    0.035051  -0.126950   0.001526   0.023163  -0.016149   0.516572
    21  H   -0.019909  -0.032755  -0.080362   0.002395  -0.055774  -0.002358
    22  H   -0.001287   0.021933  -0.079912  -0.000655   0.002550  -0.001574
    23  H   -0.001253   0.021934  -0.000646  -0.079863  -0.001573   0.002556
    24  H   -0.019862  -0.032754   0.002359  -0.080495  -0.002361  -0.055751
    25  H   -0.032779  -0.019874  -0.055733  -0.002326  -0.080420   0.002363
    26  H    0.021925  -0.001292   0.002535  -0.001588  -0.079827  -0.000656
    27  H    0.021905  -0.001238  -0.001583   0.002573  -0.000665  -0.079888
    28  H   -0.032760  -0.019963  -0.002346  -0.055750   0.002371  -0.080332
               7          8          9         10         11         12
     1  C    0.007770   0.008376   0.318974   0.318899   0.790314  -0.148576
     2  C    0.319158   0.318633   0.007823   0.007618  -0.148384   0.790472
     3  C   -1.047593  -0.196019  -0.408870   0.128334  -0.085996  -0.114241
     4  C   -0.195717  -1.047775   0.128229  -0.408835  -0.085887  -0.114144
     5  C   -0.408924   0.128432  -1.046459  -0.196308  -0.114324  -0.086107
     6  C    0.128391  -0.408821  -0.196214  -1.047349  -0.114224  -0.085929
     7  C    7.642174  -0.200486  -0.297524  -0.069418  -0.016569   0.023216
     8  C   -0.200486   7.643093  -0.069380  -0.297875  -0.016555   0.023159
     9  C   -0.297524  -0.069380   7.641352  -0.200474   0.023236  -0.016532
    10  C   -0.069418  -0.297875  -0.200474   7.642998   0.023205  -0.016538
    11  H   -0.016569  -0.016555   0.023236   0.023205   0.450986   0.012103
    12  H    0.023216   0.023159  -0.016532  -0.016538   0.012103   0.450992
    13  H   -0.084134   0.006358  -0.007995   0.002761  -0.021416  -0.006556
    14  H   -0.071577   0.005219  -0.015538   0.008696   0.016928   0.003435
    15  H    0.005209  -0.071594   0.008691  -0.015506   0.016946   0.003458
    16  H    0.006348  -0.084007   0.002759  -0.007996  -0.021433  -0.006558
    17  H   -0.007999   0.002774  -0.084012   0.006337  -0.006557  -0.021433
    18  H   -0.015532   0.008680  -0.071548   0.005215   0.003433   0.016945
    19  H    0.008693  -0.015572   0.005222  -0.071598   0.003434   0.016938
    20  H    0.002765  -0.007981   0.006337  -0.084064  -0.006553  -0.021426
    21  H    0.604989  -0.007495  -0.025967  -0.005870   0.001904  -0.001068
    22  H    0.454881  -0.000757  -0.086654   0.001375   0.000179   0.001424
    23  H   -0.000750   0.454828   0.001373  -0.086697   0.000180   0.001424
    24  H   -0.007487   0.605028  -0.005864  -0.025941   0.001911  -0.001064
    25  H   -0.026006  -0.005864   0.605031  -0.007497  -0.001067   0.001909
    26  H   -0.086594   0.001371   0.454787  -0.000758   0.001423   0.000179
    27  H    0.001373  -0.086635  -0.000752   0.454810   0.001424   0.000180
    28  H   -0.005863  -0.026044  -0.007493   0.605073  -0.001067   0.001908
              13         14         15         16         17         18
     1  C   -0.126892   0.187675   0.187699  -0.126814   0.035063  -0.169440
     2  C    0.034991  -0.169297  -0.169248   0.034979  -0.127022   0.187908
     3  C    0.516643   0.479094  -0.023245  -0.016249   0.023182  -0.021537
     4  C   -0.016213  -0.023225   0.479061   0.516514   0.001517  -0.035281
     5  C    0.023202  -0.021561  -0.035346   0.001567   0.516642   0.478946
     6  C    0.001527  -0.035302  -0.021576   0.023183  -0.016191  -0.023219
     7  C   -0.084134  -0.071577   0.005209   0.006348  -0.007999  -0.015532
     8  C    0.006358   0.005219  -0.071594  -0.084007   0.002774   0.008680
     9  C   -0.007995  -0.015538   0.008691   0.002759  -0.084012  -0.071548
    10  C    0.002761   0.008696  -0.015506  -0.007996   0.006337   0.005215
    11  H   -0.021416   0.016928   0.016946  -0.021433  -0.006557   0.003433
    12  H   -0.006556   0.003435   0.003458  -0.006558  -0.021433   0.016945
    13  H    0.490878  -0.033016  -0.006578   0.011692   0.002367  -0.002548
    14  H   -0.033016   0.442487   0.017786  -0.006569  -0.002545   0.001116
    15  H   -0.006578   0.017786   0.442548  -0.033047  -0.001600  -0.000992
    16  H    0.011692  -0.006569  -0.033047   0.490886   0.001565  -0.001599
    17  H    0.002367  -0.002545  -0.001600   0.001565   0.490848  -0.033055
    18  H   -0.002548   0.001116  -0.000992  -0.001599  -0.033055   0.442513
    19  H   -0.001597  -0.000995   0.001122  -0.002549  -0.006574   0.017787
    20  H    0.001564  -0.001597  -0.002551   0.002368   0.011692  -0.006577
    21  H   -0.007323   0.000581   0.001541  -0.000057  -0.002815  -0.002438
    22  H   -0.010666  -0.000968   0.000402  -0.000613  -0.000807   0.000320
    23  H   -0.000612   0.000401  -0.000973  -0.010666  -0.000055  -0.000029
    24  H   -0.000057   0.001540   0.000586  -0.007329  -0.000233   0.000211
    25  H   -0.002818  -0.002434   0.000211  -0.000233  -0.007324   0.000581
    26  H   -0.000804   0.000316  -0.000030  -0.000054  -0.010655  -0.000965
    27  H   -0.000055  -0.000029   0.000319  -0.000805  -0.000612   0.000402
    28  H   -0.000232   0.000210  -0.002429  -0.002815  -0.000057   0.001539
              19         20         21         22         23         24
     1  C   -0.169417   0.035051  -0.019909  -0.001287  -0.001253  -0.019862
     2  C    0.187782  -0.126950  -0.032755   0.021933   0.021934  -0.032754
     3  C   -0.035306   0.001526  -0.080362  -0.079912  -0.000646   0.002359
     4  C   -0.021493   0.023163   0.002395  -0.000655  -0.079863  -0.080495
     5  C   -0.023275  -0.016149  -0.055774   0.002550  -0.001573  -0.002361
     6  C    0.479148   0.516572  -0.002358  -0.001574   0.002556  -0.055751
     7  C    0.008693   0.002765   0.604989   0.454881  -0.000750  -0.007487
     8  C   -0.015572  -0.007981  -0.007495  -0.000757   0.454828   0.605028
     9  C    0.005222   0.006337  -0.025967  -0.086654   0.001373  -0.005864
    10  C   -0.071598  -0.084064  -0.005870   0.001375  -0.086697  -0.025941
    11  H    0.003434  -0.006553   0.001904   0.000179   0.000180   0.001911
    12  H    0.016938  -0.021426  -0.001068   0.001424   0.001424  -0.001064
    13  H   -0.001597   0.001564  -0.007323  -0.010666  -0.000612  -0.000057
    14  H   -0.000995  -0.001597   0.000581  -0.000968   0.000401   0.001540
    15  H    0.001122  -0.002551   0.001541   0.000402  -0.000973   0.000586
    16  H   -0.002549   0.002368  -0.000057  -0.000613  -0.010666  -0.007329
    17  H   -0.006574   0.011692  -0.002815  -0.000807  -0.000055  -0.000233
    18  H    0.017787  -0.006577  -0.002438   0.000320  -0.000029   0.000211
    19  H    0.442485  -0.033038   0.000211  -0.000029   0.000317  -0.002429
    20  H   -0.033038   0.490858  -0.000233  -0.000055  -0.000806  -0.002816
    21  H    0.000211  -0.000233   0.433589  -0.005085   0.000013  -0.000172
    22  H   -0.000029  -0.000055  -0.005085   0.449802  -0.000139   0.000013
    23  H    0.000317  -0.000806   0.000013  -0.000139   0.449859  -0.005097
    24  H   -0.002429  -0.002816  -0.000172   0.000013  -0.005097   0.433587
    25  H    0.001540  -0.000058   0.003803  -0.001616  -0.000007  -0.000220
    26  H    0.000401  -0.000611  -0.001618  -0.010105   0.000029  -0.000007
    27  H   -0.000966  -0.010660  -0.000007   0.000029  -0.010101  -0.001621
    28  H    0.000583  -0.007321  -0.000220  -0.000007  -0.001622   0.003804
              25         26         27         28
     1  C   -0.032779   0.021925   0.021905  -0.032760
     2  C   -0.019874  -0.001292  -0.001238  -0.019963
     3  C   -0.055733   0.002535  -0.001583  -0.002346
     4  C   -0.002326  -0.001588   0.002573  -0.055750
     5  C   -0.080420  -0.079827  -0.000665   0.002371
     6  C    0.002363  -0.000656  -0.079888  -0.080332
     7  C   -0.026006  -0.086594   0.001373  -0.005863
     8  C   -0.005864   0.001371  -0.086635  -0.026044
     9  C    0.605031   0.454787  -0.000752  -0.007493
    10  C   -0.007497  -0.000758   0.454810   0.605073
    11  H   -0.001067   0.001423   0.001424  -0.001067
    12  H    0.001909   0.000179   0.000180   0.001908
    13  H   -0.002818  -0.000804  -0.000055  -0.000232
    14  H   -0.002434   0.000316  -0.000029   0.000210
    15  H    0.000211  -0.000030   0.000319  -0.002429
    16  H   -0.000233  -0.000054  -0.000805  -0.002815
    17  H   -0.007324  -0.010655  -0.000612  -0.000057
    18  H    0.000581  -0.000965   0.000402   0.001539
    19  H    0.001540   0.000401  -0.000966   0.000583
    20  H   -0.000058  -0.000611  -0.010660  -0.007321
    21  H    0.003803  -0.001618  -0.000007  -0.000220
    22  H   -0.001616  -0.010105   0.000029  -0.000007
    23  H   -0.000007   0.000029  -0.010101  -0.001622
    24  H   -0.000220  -0.000007  -0.001621   0.003804
    25  H    0.433599  -0.005084   0.000013  -0.000172
    26  H   -0.005084   0.449765  -0.000139   0.000013
    27  H    0.000013  -0.000139   0.449799  -0.005096
    28  H   -0.000172   0.000013  -0.005096   0.433587
 Mulliken charges:
               1
     1  C    0.112241
     2  C    0.111900
     3  C   -0.466651
     4  C   -0.466703
     5  C   -0.466766
     6  C   -0.466735
     7  C   -0.662796
     8  C   -0.663092
     9  C   -0.662538
    10  C   -0.662596
    11  H    0.292426
    12  H    0.292429
    13  H    0.237530
    14  H    0.219169
    15  H    0.219135
    16  H    0.237532
    17  H    0.237557
    18  H    0.219162
    19  H    0.219175
    20  H    0.237552
    21  H    0.202500
    22  H    0.268020
    23  H    0.267975
    24  H    0.202521
    25  H    0.202481
    26  H    0.268042
    27  H    0.268025
    28  H    0.202503
 Sum of Mulliken charges =  -0.00000
 Mulliken charges with hydrogens summed into heavy atoms:
               1
     1  C    0.404666
     2  C    0.404329
     3  C   -0.009952
     4  C   -0.010035
     5  C   -0.010047
     6  C   -0.010009
     7  C   -0.192276
     8  C   -0.192595
     9  C   -0.192015
    10  C   -0.192068
 Electronic spatial extent (au):  <R**2>=           1624.8491
 Charge=              0.0000 electrons
 Dipole moment (field-independent basis, Debye):
    X=              0.0001    Y=              0.0003    Z=             -0.0001  Tot=              0.0004
 Quadrupole moment (field-independent basis, Debye-Ang):
   XX=            -66.5243   YY=            -66.5108   ZZ=            -65.5669
   XY=             -0.0002   XZ=             -0.0004   YZ=              0.3296
 Traceless Quadrupole moment (field-independent basis, Debye-Ang):
   XX=             -0.3236   YY=             -0.3101   ZZ=              0.6338
   XY=             -0.0002   XZ=             -0.0004   YZ=              0.3296
 Octapole moment (field-independent basis, Debye-Ang**2):
  XXX=              0.0023  YYY=              0.0052  ZZZ=             -0.0002  XYY=              0.0008
  XXY=              0.0018  XXZ=             -0.0005  XZZ=             -0.0002  YZZ=              0.0003
  YYZ=             -0.0015  XYZ=              0.0007
 Hexadecapole moment (field-independent basis, Debye-Ang**3):
 XXXX=          -1491.1513 YYYY=           -654.2766 ZZZZ=           -172.8928 XXXY=             -0.0041
 XXXZ=             -0.0066 YYYX=              0.0009 YYYZ=              8.3901 ZZZX=             -0.0017
 ZZZY=             -0.3065 XXYY=           -356.6235 XXZZ=           -277.4336 YYZZ=           -139.3016
 XXYZ=             -5.3900 YYXZ=              0.0006 ZZXY=              0.0012
 N-N= 5.793545202720D+02 E-N=-2.065436205059D+03  KE= 3.897104663254D+02
 R6APFD:  NTU= -4 IXU= 1 FactS= 1.050
 Calling FoFJK, ICntrl=      2127 FMM=F ISym2X=0 I1Cent= 0 IOpClX= 0 NMat=1 NMatS=1 NMatT=0.
 ***** Axes restored to original set *****
 -------------------------------------------------------------------
 Center     Atomic                   Forces (Hartrees/Bohr)
 Number     Number              X              Y              Z
 -------------------------------------------------------------------
      1        6          -0.000005003   -0.003562815    0.010615902
      2        6           0.000015355    0.003543060   -0.010651379
      3        6           0.000014822    0.003172413   -0.004845245
      4        6           0.000035048    0.003270572   -0.004933446
      5        6           0.000078576   -0.003330197    0.004902386
      6        6          -0.000031441   -0.003259442    0.004895714
      7        6           0.001326406   -0.001183080    0.001947022
      8        6          -0.001363186   -0.001250809    0.001903994
      9        6           0.001181764    0.001263764   -0.001878909
     10        6          -0.001316626    0.001246243   -0.001912928
     11        1          -0.000011003    0.002975282   -0.004780822
     12        1          -0.000010949   -0.002970906    0.004778364
     13        1          -0.001903767   -0.002917128    0.000362746
     14        1          -0.002087053    0.000650764    0.003719729
     15        1           0.002085606    0.000630158    0.003829363
     16        1           0.001878189   -0.002954293    0.000350688
     17        1          -0.001886464    0.002983544   -0.000318012
     18        1          -0.002081559   -0.000655096   -0.003781376
     19        1           0.002094318   -0.000655044   -0.003782202
     20        1           0.001880354    0.002991455   -0.000324653
     21        1          -0.000269484    0.000137926   -0.003476084
     22        1           0.002568160   -0.001271737   -0.000956637
     23        1          -0.002535452   -0.001244233   -0.000967440
     24        1           0.000273267    0.000142661   -0.003464178
     25        1          -0.000270320   -0.000158106    0.003416135
     26        1           0.002630588    0.001292940    0.000924160
     27        1          -0.002565701    0.001253774    0.000947874
     28        1           0.000275556   -0.000141669    0.003479231
 -------------------------------------------------------------------
 Cartesian Forces:  Max     0.010651379 RMS     0.002868786

 GradGradGradGradGradGradGradGradGradGradGradGradGradGradGradGradGradGrad
 Berny optimization.
 FormGI is forming the generalized inverse of G from B-inverse, IUseBI=4.
 Internal  Forces:  Max     0.004858660 RMS     0.001442666
 Search for a local minimum.
 Step number   1 out of a maximum of  168
 All quantities printed in internal units (Hartrees-Bohrs-Radians)
 Mixed Optimization -- RFO/linear search
 Second derivative matrix not updated -- first step.
 ITU=  0
     Eigenvalues ---    0.00533   0.00538   0.00562   0.00648   0.00650
     Eigenvalues ---    0.01482   0.01599   0.02284   0.02454   0.03561
     Eigenvalues ---    0.03613   0.03837   0.03882   0.04136   0.04151
     Eigenvalues ---    0.04226   0.04738   0.04756   0.04811   0.04853
     Eigenvalues ---    0.04878   0.04954   0.05294   0.05471   0.05573
     Eigenvalues ---    0.05699   0.05778   0.06941   0.07040   0.07927
     Eigenvalues ---    0.08120   0.08122   0.08122   0.08122   0.08215
     Eigenvalues ---    0.08215   0.08216   0.08216   0.09070   0.10744
     Eigenvalues ---    0.11108   0.12107   0.12110   0.13830   0.14638
     Eigenvalues ---    0.15563   0.17277   0.19704   0.20204   0.22337
     Eigenvalues ---    0.27233   0.27811   0.27894   0.27917   0.29063
     Eigenvalues ---    0.29367   0.29401   0.29407   0.29413   0.29445
     Eigenvalues ---    0.33715   0.33715   0.33962   0.33974   0.33974
     Eigenvalues ---    0.33982   0.34010   0.34018   0.34021   0.34021
     Eigenvalues ---    0.34074   0.34082   0.34089   0.34089   0.34139
     Eigenvalues ---    0.34146   0.34147   0.34160
 RFO step:  Lambda=-2.90348716D-03 EMin= 5.33349637D-03
 Linear search not attempted -- first point.
 Iteration  1 RMS(Cart)=  0.02038886 RMS(Int)=  0.00029483
 Iteration  2 RMS(Cart)=  0.00030238 RMS(Int)=  0.00007599
 Iteration  3 RMS(Cart)=  0.00000004 RMS(Int)=  0.00007599
 Variable       Old X    -DE/DX   Delta X   Delta X   Delta X     New X
                                 (Linear)    (Quad)   (Total)
    R1        2.91355  -0.00256   0.00000  -0.01355  -0.01364   2.89991
    R2        2.89919  -0.00153   0.00000  -0.00541  -0.00539   2.89380
    R3        2.89933  -0.00155   0.00000  -0.00552  -0.00550   2.89383
    R4        2.07813   0.00486   0.00000   0.01429   0.01429   2.09242
    R5        2.89925  -0.00153   0.00000  -0.00544  -0.00542   2.89383
    R6        2.89916  -0.00151   0.00000  -0.00537  -0.00535   2.89381
    R7        2.07813   0.00486   0.00000   0.01428   0.01428   2.09241
    R8        2.88614   0.00356   0.00000   0.01211   0.01210   2.89824
    R9        2.07205   0.00252   0.00000   0.00734   0.00734   2.07939
   R10        2.07393   0.00363   0.00000   0.01061   0.01061   2.08454
   R11        2.88616   0.00355   0.00000   0.01208   0.01206   2.89822
   R12        2.07360   0.00375   0.00000   0.01093   0.01093   2.08453
   R13        2.07191   0.00256   0.00000   0.00746   0.00746   2.07937
   R14        2.88657   0.00345   0.00000   0.01174   0.01172   2.89829
   R15        2.07180   0.00260   0.00000   0.00757   0.00757   2.07937
   R16        2.07375   0.00370   0.00000   0.01078   0.01078   2.08453
   R17        2.88623   0.00353   0.00000   0.01203   0.01201   2.89824
   R18        2.07375   0.00370   0.00000   0.01079   0.01079   2.08453
   R19        2.07180   0.00261   0.00000   0.00758   0.00758   2.07938
   R20        2.88347   0.00298   0.00000   0.01207   0.01211   2.89558
   R21        2.07295   0.00345   0.00000   0.01004   0.01004   2.08299
   R22        2.07083   0.00233   0.00000   0.00677   0.00677   2.07760
   R23        2.88341   0.00300   0.00000   0.01213   0.01217   2.89558
   R24        2.07096   0.00229   0.00000   0.00665   0.00665   2.07761
   R25        2.07299   0.00343   0.00000   0.01001   0.01001   2.08300
   R26        2.07313   0.00339   0.00000   0.00987   0.00987   2.08300
   R27        2.07061   0.00240   0.00000   0.00698   0.00698   2.07759
   R28        2.07085   0.00232   0.00000   0.00675   0.00675   2.07760
   R29        2.07295   0.00345   0.00000   0.01005   0.01005   2.08300
    A1        1.93259   0.00056   0.00000  -0.00081  -0.00080   1.93179
    A2        1.93268   0.00056   0.00000  -0.00088  -0.00087   1.93181
    A3        1.89380  -0.00098   0.00000  -0.02019  -0.02018   1.87362
    A4        1.93929  -0.00036   0.00000   0.00466   0.00465   1.94394
    A5        1.88164   0.00009   0.00000   0.00860   0.00850   1.89014
    A6        1.88181   0.00009   0.00000   0.00846   0.00836   1.89017
    A7        1.93255   0.00055   0.00000  -0.00081  -0.00080   1.93176
    A8        1.93250   0.00056   0.00000  -0.00074  -0.00073   1.93177
    A9        1.89389  -0.00098   0.00000  -0.02024  -0.02023   1.87367
   A10        1.93923  -0.00036   0.00000   0.00475   0.00475   1.94398
   A11        1.88174   0.00009   0.00000   0.00850   0.00840   1.89014
   A12        1.88190   0.00008   0.00000   0.00835   0.00825   1.89016
   A13        1.94408   0.00115   0.00000   0.00598   0.00584   1.94992
   A14        1.91960  -0.00131   0.00000  -0.00623  -0.00645   1.91315
   A15        1.91932  -0.00166   0.00000  -0.02323  -0.02320   1.89612
   A16        1.90649   0.00057   0.00000   0.02164   0.02166   1.92815
   A17        1.90731   0.00114   0.00000   0.00488   0.00490   1.91221
   A18        1.86530   0.00009   0.00000  -0.00309  -0.00337   1.86193
   A19        1.94411   0.00117   0.00000   0.00596   0.00582   1.94994
   A20        1.91919  -0.00166   0.00000  -0.02313  -0.02310   1.89609
   A21        1.91939  -0.00130   0.00000  -0.00611  -0.00632   1.91306
   A22        1.90729   0.00114   0.00000   0.00495   0.00497   1.91226
   A23        1.90670   0.00055   0.00000   0.02141   0.02143   1.92813
   A24        1.86543   0.00008   0.00000  -0.00315  -0.00343   1.86200
   A25        1.94395   0.00119   0.00000   0.00608   0.00594   1.94989
   A26        1.91959  -0.00131   0.00000  -0.00620  -0.00641   1.91318
   A27        1.91931  -0.00167   0.00000  -0.02322  -0.02318   1.89612
   A28        1.90665   0.00054   0.00000   0.02143   0.02145   1.92810
   A29        1.90736   0.00113   0.00000   0.00483   0.00485   1.91221
   A30        1.86525   0.00010   0.00000  -0.00298  -0.00326   1.86199
   A31        1.94405   0.00117   0.00000   0.00601   0.00587   1.94992
   A32        1.91939  -0.00168   0.00000  -0.02333  -0.02330   1.89609
   A33        1.91946  -0.00130   0.00000  -0.00607  -0.00629   1.91317
   A34        1.90731   0.00114   0.00000   0.00489   0.00491   1.91222
   A35        1.90664   0.00055   0.00000   0.02147   0.02149   1.92813
   A36        1.86525   0.00009   0.00000  -0.00301  -0.00329   1.86195
   A37        1.95165  -0.00156   0.00000  -0.01421  -0.01420   1.93745
   A38        1.90874  -0.00015   0.00000  -0.00296  -0.00311   1.90564
   A39        1.91345   0.00129   0.00000   0.01282   0.01292   1.92637
   A40        1.90864   0.00059   0.00000  -0.00132  -0.00138   1.90726
   A41        1.91346   0.00048   0.00000   0.01032   0.01031   1.92378
   A42        1.86589  -0.00061   0.00000  -0.00427  -0.00425   1.86164
   A43        1.95175  -0.00157   0.00000  -0.01430  -0.01429   1.93746
   A44        1.91338   0.00129   0.00000   0.01286   0.01295   1.92633
   A45        1.90872  -0.00014   0.00000  -0.00291  -0.00306   1.90566
   A46        1.91352   0.00048   0.00000   0.01025   0.01024   1.92377
   A47        1.90868   0.00059   0.00000  -0.00130  -0.00135   1.90732
   A48        1.86578  -0.00061   0.00000  -0.00420  -0.00419   1.86159
   A49        1.95167  -0.00156   0.00000  -0.01426  -0.01425   1.93742
   A50        1.90852  -0.00013   0.00000  -0.00283  -0.00298   1.90554
   A51        1.91334   0.00130   0.00000   0.01291   0.01301   1.92635
   A52        1.90884   0.00057   0.00000  -0.00147  -0.00153   1.90731
   A53        1.91364   0.00047   0.00000   0.01023   0.01023   1.92387
   A54        1.86583  -0.00061   0.00000  -0.00419  -0.00417   1.86165
   A55        1.95173  -0.00157   0.00000  -0.01428  -0.01427   1.93745
   A56        1.91338   0.00130   0.00000   0.01288   0.01298   1.92636
   A57        1.90868  -0.00014   0.00000  -0.00292  -0.00307   1.90561
   A58        1.91361   0.00047   0.00000   0.01019   0.01018   1.92379
   A59        1.90867   0.00059   0.00000  -0.00130  -0.00136   1.90731
   A60        1.86574  -0.00061   0.00000  -0.00416  -0.00414   1.86160
    D1        0.98253  -0.00033   0.00000  -0.00493  -0.00494   0.97759
    D2        3.14156   0.00000   0.00000   0.00007   0.00007  -3.14156
    D3       -1.07947  -0.00016   0.00000  -0.00250  -0.00251  -1.08197
    D4       -3.14141  -0.00001   0.00000  -0.00015  -0.00015  -3.14156
    D5       -0.98238   0.00032   0.00000   0.00485   0.00486  -0.97752
    D6        1.07978   0.00016   0.00000   0.00228   0.00228   1.08206
    D7       -1.07931  -0.00017   0.00000  -0.00265  -0.00265  -1.08197
    D8        1.07972   0.00016   0.00000   0.00235   0.00235   1.08207
    D9       -3.14130  -0.00001   0.00000  -0.00022  -0.00022  -3.14153
   D10       -0.97334  -0.00024   0.00000  -0.00661  -0.00660  -0.97994
   D11       -3.08968  -0.00083   0.00000  -0.03367  -0.03354  -3.12322
   D12        1.14385   0.00084   0.00000  -0.01226  -0.01229   1.13156
   D13       -3.12879  -0.00109   0.00000  -0.00821  -0.00822  -3.13701
   D14        1.03805  -0.00169   0.00000  -0.03526  -0.03515   1.00290
   D15       -1.01160  -0.00002   0.00000  -0.01386  -0.01390  -1.02551
   D16        1.09589  -0.00105   0.00000  -0.02634  -0.02639   1.06950
   D17       -1.02045  -0.00164   0.00000  -0.05340  -0.05333  -1.07377
   D18       -3.07010   0.00003   0.00000  -0.03199  -0.03207  -3.10218
   D19        0.97298   0.00024   0.00000   0.00691   0.00690   0.97988
   D20       -1.14411  -0.00084   0.00000   0.01241   0.01243  -1.13168
   D21        3.08947   0.00083   0.00000   0.03374   0.03361   3.12308
   D22        3.12838   0.00110   0.00000   0.00855   0.00856   3.13694
   D23        1.01128   0.00001   0.00000   0.01405   0.01409   1.02538
   D24       -1.03832   0.00168   0.00000   0.03538   0.03527  -1.00304
   D25       -1.09640   0.00105   0.00000   0.02677   0.02682  -1.06959
   D26        3.06969  -0.00003   0.00000   0.03227   0.03235   3.10204
   D27        1.02008   0.00164   0.00000   0.05360   0.05353   1.07361
   D28       -0.97327  -0.00024   0.00000  -0.00674  -0.00673  -0.98001
   D29       -3.08973  -0.00083   0.00000  -0.03361  -0.03348  -3.12321
   D30        1.14388   0.00084   0.00000  -0.01238  -0.01240   1.13148
   D31       -3.12843  -0.00110   0.00000  -0.00859  -0.00860  -3.13703
   D32        1.03830  -0.00169   0.00000  -0.03546  -0.03535   1.00295
   D33       -1.01127  -0.00003   0.00000  -0.01422  -0.01427  -1.02554
   D34        1.09611  -0.00105   0.00000  -0.02659  -0.02664   1.06947
   D35       -1.02034  -0.00164   0.00000  -0.05346  -0.05339  -1.07373
   D36       -3.06992   0.00003   0.00000  -0.03222  -0.03231  -3.10222
   D37        0.97335   0.00024   0.00000   0.00661   0.00660   0.97995
   D38       -1.14387  -0.00084   0.00000   0.01229   0.01232  -1.13155
   D39        3.08978   0.00083   0.00000   0.03356   0.03343   3.12321
   D40        3.12854   0.00110   0.00000   0.00841   0.00842   3.13696
   D41        1.01132   0.00002   0.00000   0.01410   0.01414   1.02546
   D42       -1.03822   0.00168   0.00000   0.03537   0.03526  -1.00296
   D43       -1.09610   0.00105   0.00000   0.02651   0.02656  -1.06955
   D44        3.06987  -0.00003   0.00000   0.03219   0.03227   3.10214
   D45        1.02032   0.00164   0.00000   0.05346   0.05339   1.07371
   D46        0.95321   0.00009   0.00000   0.01570   0.01574   0.96895
   D47       -1.16345   0.00047   0.00000   0.02868   0.02866  -1.13479
   D48        3.07920   0.00055   0.00000   0.02817   0.02817   3.10736
   D49        3.07718  -0.00042   0.00000   0.02640   0.02647   3.10365
   D50        0.96052  -0.00003   0.00000   0.03938   0.03939   0.99991
   D51       -1.08002   0.00005   0.00000   0.03887   0.03890  -1.04112
   D52       -1.17097   0.00066   0.00000   0.03769   0.03779  -1.13318
   D53        2.99556   0.00104   0.00000   0.05068   0.05071   3.04627
   D54        0.95502   0.00112   0.00000   0.05016   0.05022   1.00524
   D55       -0.95278  -0.00010   0.00000  -0.01606  -0.01610  -0.96888
   D56       -3.07887  -0.00055   0.00000  -0.02840  -0.02840  -3.10727
   D57        1.16397  -0.00048   0.00000  -0.02904  -0.02901   1.13496
   D58        1.17123  -0.00066   0.00000  -0.03789  -0.03798   1.13325
   D59       -0.95485  -0.00111   0.00000  -0.05023  -0.05028  -1.00513
   D60       -2.99520  -0.00103   0.00000  -0.05086  -0.05089  -3.04609
   D61       -3.07665   0.00040   0.00000  -0.02674  -0.02681  -3.10347
   D62        1.08045  -0.00005   0.00000  -0.03909  -0.03911   1.04133
   D63       -0.95990   0.00002   0.00000  -0.03972  -0.03973  -0.99963
   D64        0.95318   0.00009   0.00000   0.01580   0.01584   0.96902
   D65       -1.16359   0.00048   0.00000   0.02891   0.02889  -1.13470
   D66        3.07933   0.00055   0.00000   0.02819   0.02818   3.10751
   D67        3.07716  -0.00041   0.00000   0.02646   0.02653   3.10369
   D68        0.96040  -0.00002   0.00000   0.03957   0.03958   0.99998
   D69       -1.07987   0.00004   0.00000   0.03884   0.03887  -1.04099
   D70       -1.17093   0.00065   0.00000   0.03774   0.03784  -1.13310
   D71        2.99549   0.00104   0.00000   0.05086   0.05089   3.04638
   D72        0.95522   0.00111   0.00000   0.05013   0.05018   1.00540
   D73       -0.95324  -0.00009   0.00000  -0.01568  -0.01572  -0.96896
   D74       -3.07943  -0.00054   0.00000  -0.02798  -0.02797  -3.10740
   D75        1.16347  -0.00047   0.00000  -0.02867  -0.02864   1.13483
   D76        1.17101  -0.00066   0.00000  -0.03778  -0.03787   1.13313
   D77       -0.95518  -0.00111   0.00000  -0.05007  -0.05012  -1.00530
   D78       -2.99547  -0.00104   0.00000  -0.05076  -0.05079  -3.04626
   D79       -3.07712   0.00040   0.00000  -0.02648  -0.02655  -3.10367
   D80        1.07988  -0.00004   0.00000  -0.03877  -0.03880   1.04108
   D81       -0.96041   0.00002   0.00000  -0.03946  -0.03947  -0.99988
   D82       -0.94170   0.00118   0.00000  -0.01235  -0.01227  -0.95398
   D83        1.17488   0.00038   0.00000  -0.02625  -0.02619   1.14869
   D84       -3.06768   0.00025   0.00000  -0.02628  -0.02623  -3.09391
   D85        1.17502   0.00037   0.00000  -0.02627  -0.02621   1.14880
   D86       -2.99159  -0.00043   0.00000  -0.04018  -0.04013  -3.03172
   D87       -0.95096  -0.00055   0.00000  -0.04020  -0.04017  -0.99113
   D88       -3.06768   0.00025   0.00000  -0.02626  -0.02621  -3.09389
   D89       -0.95110  -0.00055   0.00000  -0.04016  -0.04012  -0.99123
   D90        1.08952  -0.00068   0.00000  -0.04018  -0.04016   1.04936
   D91        0.94151  -0.00118   0.00000   0.01249   0.01241   0.95392
   D92        3.06756  -0.00025   0.00000   0.02633   0.02628   3.09384
   D93       -1.17521  -0.00037   0.00000   0.02640   0.02634  -1.14886
   D94        3.06751  -0.00025   0.00000   0.02633   0.02628   3.09379
   D95       -1.08962   0.00067   0.00000   0.04017   0.04015  -1.04947
   D96        0.95080   0.00055   0.00000   0.04024   0.04021   0.99101
   D97       -1.17527  -0.00037   0.00000   0.02639   0.02633  -1.14893
   D98        0.95079   0.00055   0.00000   0.04023   0.04020   0.99099
   D99        2.99120   0.00043   0.00000   0.04031   0.04027   3.03147
         Item               Value     Threshold  Converged?
 Maximum Force            0.004859     0.000450     NO 
 RMS     Force            0.001443     0.000300     NO 
 Maximum Displacement     0.072672     0.001800     NO 
 RMS     Displacement     0.020440     0.001200     NO 
 Predicted change in Energy=-1.607125D-03
 GradGradGradGradGradGradGradGradGradGradGradGradGradGradGradGradGradGrad

                          Input orientation:                          
 ---------------------------------------------------------------------
 Center     Atomic      Atomic             Coordinates (Angstroms)
 Number     Number       Type             X           Y           Z
 ---------------------------------------------------------------------
      1          6           0       -0.000008   -0.720913   -0.262667
      2          6           0        0.000007    0.720943    0.262638
      3          6           0        1.264861   -1.459398    0.184244
      4          6           0       -1.264909   -1.459394    0.184210
      5          6           0        1.264911    1.459371   -0.184315
      6          6           0       -1.264896    1.459395   -0.184250
      7          6           0        2.536823   -0.722914   -0.253793
      8          6           0       -2.536862   -0.722868   -0.253766
      9          6           0        2.536853    0.722841    0.253811
     10          6           0       -2.536834    0.722888    0.253832
     11          1           0        0.000025   -0.669387   -1.368729
     12          1           0        0.000043    0.669467    1.368695
     13          1           0        1.255739   -2.483910   -0.217126
     14          1           0        1.250481   -1.549859    1.283528
     15          1           0       -1.250471   -1.549955    1.283475
     16          1           0       -1.255772   -2.483831   -0.217322
     17          1           0        1.255872    2.483883    0.217027
     18          1           0        1.250552    1.549745   -1.283599
     19          1           0       -1.250523    1.549821   -1.283530
     20          1           0       -1.255812    2.483906    0.217110
     21          1           0        2.594040   -0.722128   -1.354578
     22          1           0        3.429659   -1.252744    0.107933
     23          1           0       -3.429680   -1.252680    0.108044
     24          1           0       -2.594201   -0.722152   -1.354549
     25          1           0        2.593897    0.722099    1.354610
     26          1           0        3.429708    1.252696   -0.107807
     27          1           0       -3.429688    1.252718   -0.107851
     28          1           0       -2.594016    0.722160    1.354625
 ---------------------------------------------------------------------
                    Distance matrix (angstroms):
                    1          2          3          4          5
     1  C    0.000000
     2  C    1.534566   0.000000
     3  C    1.531333   2.521881   0.000000
     4  C    1.531349   2.521911   2.529770   0.000000
     5  C    2.521864   1.531347   2.941947   3.880077   0.000000
     6  C    2.521872   1.531340   3.880053   2.941954   2.529807
     7  C    2.536847   2.964264   1.533680   3.897104   2.526848
     8  C    2.536871   2.964282   3.897104   1.533674   4.384116
     9  C    2.964260   2.536861   2.526850   4.384106   1.533710
    10  C    2.964257   2.536858   4.384073   2.526855   3.897133
    11  H    1.107262   2.143450   2.153057   2.153089   2.744884
    12  H    2.143478   1.107255   2.744950   2.745024   2.153063
    13  H    2.164978   3.475358   1.100366   2.750340   3.943428
    14  H    2.154435   2.786116   1.103093   2.746611   3.348170
    15  H    2.154420   2.786177   2.746526   1.103084   4.187792
    16  H    2.164920   3.475330   2.750328   1.100355   4.680147
    17  H    3.475349   2.165002   3.943427   4.680261   1.100355
    18  H    2.786052   2.154443   3.348090   4.187711   1.103086
    19  H    2.786070   2.154414   4.187710   3.348111   2.746609
    20  H    3.475356   2.164993   4.680226   3.943448   2.750429
    21  H    2.814490   3.380362   2.162928   4.219350   2.809812
    22  H    3.490387   3.960036   2.175978   4.699733   3.482400
    23  H    3.490395   3.960031   4.699707   2.175951   5.429538
    24  H    2.814613   3.380493   4.219452   2.162943   4.584893
    25  H    3.380268   2.814368   2.809809   4.584663   2.162883
    26  H    3.960059   3.490392   3.482429   5.429562   2.175986
    27  H    3.960037   3.490395   5.429519   3.482402   4.699767
    28  H    3.380381   2.814498   4.584748   2.809907   4.219376
                    6          7          8          9         10
     6  C    0.000000
     7  C    4.384106   0.000000
     8  C    2.526857   5.073685   0.000000
     9  C    3.897140   1.532276   5.300027   0.000000
    10  C    1.533684   5.300003   1.532275   5.073687   0.000000
    11  H    2.744947   2.771515   2.771606   3.317594   3.317648
    12  H    2.153067   3.317596   3.317660   2.771501   2.771556
    13  H    4.680207   2.177987   4.181678   3.485152   4.988884
    14  H    4.187733   2.168380   4.170270   2.807176   4.535351
    15  H    3.348226   4.170227   2.168406   4.535376   2.807261
    16  H    3.943375   4.181619   2.177960   4.988859   3.485133
    17  H    2.750430   3.485119   4.988960   2.177966   4.181755
    18  H    2.746672   2.807129   4.535397   2.168403   4.170333
    19  H    1.103087   4.535381   2.807170   4.170315   2.168386
    20  H    1.100361   4.988941   3.485142   4.181747   2.177969
    21  H    4.584768   1.102272   5.247661   2.162897   5.567847
    22  H    5.429541   1.099418   6.000914   2.172860   6.286768
    23  H    3.482396   6.000895   1.099423   6.286767   2.172855
    24  H    2.809947   5.247769   1.102276   5.567993   2.162943
    25  H    4.219239   2.162933   5.567719   1.102276   5.247487
[...]
 24581,-0.00005086,0.00010031,-0.00001291,0.00001768,-0.00003347,-0.000
 06541,-0.00003872,0.00039296,0.00077208,-0.00049103,0.00038094,0.00004
 015,-0.00001678,0.00004137,0.00002082,-0.00001576,0.00000631,-0.007439
 17,-0.00547677,0.32251717,-0.00288693,-0.00470315,0.00311475,0.0004376
 2,-0.00059333,-0.00016807,-0.02171996,0.01362193,-0.00942498,-0.001004
 45,0.00150998,-0.00073615,0.00110430,-0.00030769,0.00022409,0.00009980
 ,0.00004846,0.00001940,-0.21793991,0.10226702,-0.06563515,-0.00042888,
 -0.00048650,0.00033331,0.00166412,-0.00112573,0.00076250,0.00006014,-0
 .00006692,-0.00004989,0.00031466,-0.00014857,-0.00002771,-0.00001608,0
 .00005398,0.00007486,0.00052782,-0.00039664,-0.00054583,0.00054450,0.0
 0034889,0.00057226,-0.00001838,0.00001008,0.00011612,0.00003141,-0.000
 04201,-0.00006153,0.00001739,-0.00012149,-0.00011119,-0.00002814,-0.00
 005721,-0.00004990,-0.00000309,-0.00001931,-0.00001399,-0.00002778,0.0
 0007604,0.00000800,0.00070869,-0.00093392,0.00040559,0.23840497,-0.002
 68420,-0.00190175,0.00155516,-0.00063851,-0.00026463,0.00010532,-0.014
 92545,0.00913222,-0.00636497,-0.00078340,0.00075439,-0.00026278,-0.001
 89422,-0.00600788,-0.00368491,0.00015505,0.00020729,-0.00004409,0.1023
 2554,-0.10690700,0.03911677,-0.00021324,-0.00024418,0.00012526,0.02608
 040,-0.01474603,0.01119901,0.00002910,-0.00007106,0.00003862,0.0001340
 3,-0.00014636,0.00002346,0.00007017,0.00006110,-0.00004583,0.00055226,
 0.00048282,-0.00054147,0.00076266,0.00040279,-0.00003887,0.00000398,-0
 .00000113,0.00004192,0.00004768,0.00003506,-0.00003625,0.00190633,-0.0
 0098509,0.00035023,-0.00037866,0.00022013,-0.00003566,-0.00001979,-0.0
 0001441,0.00000195,-0.00010246,0.00009644,0.00001635,0.00000849,-0.000
 85444,0.00007188,-0.10996495,0.11905045,0.00097659,0.00125404,-0.00055
 319,-0.00018329,0.00007055,0.00001877,0.00984366,-0.00580783,0.0028560
 8,0.00040378,-0.00016511,0.00056150,-0.00055122,-0.00194561,-0.0007170
 8,0.00002429,0.00004018,-0.00005677,-0.06668897,0.03975951,-0.07375555
 ,0.00015107,0.00011268,-0.00008480,0.01117082,-0.00660568,0.00340745,-
 0.00000637,0.00001015,0.00002604,0.00034486,-0.00014913,0.00040270,-0.
 00001342,0.00001672,-0.00002732,-0.00073498,-0.00015726,0.00014133,-0.
 00019100,-0.00056257,0.00028222,-0.00009288,-0.00005338,0.00000519,0.0
 0000061,0.00000547,-0.00000406,0.00038316,-0.00035398,0.00049649,0.000
 26804,-0.00025889,0.00036750,-0.00000642,-0.00000690,0.00001350,-0.000
 02088,0.00000346,0.00001468,-0.02597515,0.01542744,-0.00935633,0.07068
 486,-0.04190486,0.07542502,-0.00288688,0.00470315,-0.00311473,0.000437
 64,0.00059333,0.00016807,-0.00100446,-0.00150996,0.00073615,-0.0217198
 7,-0.01362148,0.00942518,0.00009980,-0.00004846,-0.00001940,0.00110434
 ,0.00030756,-0.00022416,-0.00042887,0.00048651,-0.00033329,-0.21794305
 ,-0.10226471,0.06563829,0.00006014,0.00006692,0.00004989,0.00166361,0.
 00112536,-0.00076229,0.00031467,0.00014857,0.00002770,-0.00001608,-0.0
 0005398,-0.00007486,0.00003141,0.00004201,0.00006153,-0.00001837,-0.00
 001008,-0.00011612,0.00054446,-0.00034889,-0.00057226,0.00052783,0.000
 39664,0.00054581,-0.00002778,-0.00007604,-0.00000800,-0.00000309,0.000
 01931,0.00001399,-0.00002813,0.00005720,0.00004990,0.00001736,0.000121
 46,0.00011120,0.00003174,-0.00000841,0.00002603,-0.00024623,-0.0001129
 1,0.00005705,0.23840819,0.00268423,-0.00190184,0.00155518,0.00063851,-
 0.00026463,0.00010531,0.00078342,0.00075440,-0.00026280,0.01492580,0.0
 0913210,-0.00636530,-0.00015504,0.00020729,-0.00004409,0.00189416,-0.0
 0600794,-0.00368490,0.00021324,-0.00024419,0.00012526,-0.10232317,-0.1
 0690279,0.03911721,-0.00002910,-0.00007105,0.00003862,-0.02608090,-0.0
 1474605,0.01119927,-0.00013403,-0.00014636,0.00002347,-0.00007017,0.00
 006110,-0.00004583,-0.00004768,0.00003506,-0.00003625,-0.00000398,-0.0
 0000112,0.00004192,-0.00076265,0.00040280,-0.00003886,-0.00055225,0.00
 048283,-0.00054147,0.00010246,0.00009644,0.00001634,0.00001979,-0.0000
 1441,0.00000195,0.00037865,0.00022012,-0.00003565,-0.00190635,-0.00098
 509,0.00035024,-0.00000708,-0.00000411,-0.00000335,0.00011291,0.000088
 51,-0.00002186,0.10996252,0.11904641,-0.00097657,0.00125404,-0.0005532
 0,0.00018329,0.00007054,0.00001877,-0.00040377,-0.00016510,0.00056150,
 -0.00984367,-0.00580766,0.00285618,-0.00002429,0.00004018,-0.00005677,
 0.00055114,-0.00194561,-0.00071700,-0.00015107,0.00011268,-0.00008480,
 0.06669221,0.03976002,-0.07375746,0.00000637,0.00001015,0.00002604,-0.
 01117071,-0.00660555,0.00340752,-0.00034485,-0.00014913,0.00040271,0.0
 0001342,0.00001673,-0.00002732,-0.00000061,0.00000547,-0.00000406,0.00
 009288,-0.00005338,0.00000519,0.00019100,-0.00056256,0.00028222,0.0007
 3498,-0.00015728,0.00014132,0.00002088,0.00000346,0.00001468,0.0000064
 2,-0.00000689,0.00001350,-0.00026805,-0.00025890,0.00036748,-0.0003831
 4,-0.00035398,0.00049647,0.00000427,0.00001198,0.00000035,-0.00005705,
 -0.00002186,0.00001047,-0.07068824,-0.04190518,0.07542694,0.00176827,-
 0.00000134,-0.00143460,-0.00023034,-0.00003770,-0.00005807,-0.00009872
 ,0.00021578,0.00004157,-0.00234980,0.00133442,-0.02876308,0.00004273,-
 0.00004189,0.00000399,0.00006418,0.00002504,-0.00095081,0.00005030,-0.
 00003033,0.00011735,-0.04761273,-0.00149010,-0.00404243,-0.00000877,0.
 00001617,-0.00000467,-0.00052346,0.00004434,0.00116290,-0.00061148,-0.
 00014338,0.00073277,0.00002154,0.00010822,0.00020915,0.00002695,0.0000
 0219,-0.00002933,0.00008138,-0.00006188,0.00026570,-0.00422144,0.00253
 669,-0.00170570,0.00085924,-0.00012004,0.00057406,-0.00000915,-0.00000
 717,0.00000769,-0.00001895,-0.00001827,0.00004620,0.00009148,-0.000227
 41,0.00003896,-0.00003452,0.00004450,0.00010369,-0.00005205,-0.0000254
 9,0.00003134,0.00003174,0.00000708,-0.00000427,0.00070896,-0.00000827,
 0.02597523,0.05128827,-0.00097008,0.00018309,-0.00018531,-0.00001847,-
 0.00012132,-0.00001315,-0.00003975,-0.00007891,-0.00004368,0.00120784,
 -0.00130638,0.01809378,-0.00003391,0.00006542,-0.00000707,0.00082182,0
 .00180708,-0.00091119,-0.00002011,-0.00000712,-0.00006251,-0.00155076,
 -0.04617997,0.00679801,-0.00001072,-0.00002115,0.00000762,-0.00078223,
 -0.00149436,-0.03353486,0.00013003,0.00023854,-0.00038800,0.00010224,-
 0.00012751,0.00010184,0.00001256,-0.00004638,0.00001376,-0.00009148,-0
 .00000189,-0.00011284,0.00329884,-0.00095325,0.00083167,-0.00049411,-0
 .00002104,0.00008865,0.00000968,0.00002588,0.00000134,-0.00001319,-0.0
 0000004,0.00002568,-0.00041599,-0.00033033,0.00087742,0.00037286,0.000
 20978,0.00036586,0.00002549,0.00002073,-0.00001039,0.00000841,-0.00000
 411,0.00001198,0.00093406,-0.00085436,0.01542698,-0.00252713,0.0539183
 9,0.00094430,-0.00012727,0.00007705,-0.00010043,-0.00010799,0.00022408
 ,-0.00012883,-0.00001569,0.00043723,-0.00073010,0.00102396,-0.01058192
 ,-0.00002985,-0.00000450,-0.00008445,0.00025333,0.00096499,0.00038849,
 -0.00003865,0.00001865,-0.00001138,-0.00487452,0.00645514,-0.29444487,
 -0.00002178,-0.00002023,0.00002769,0.00025666,-0.00068575,-0.01265055,
 -0.00077646,-0.00041034,0.00042516,0.00021313,0.00010685,0.00004852,0.
 00001291,0.00001768,-0.00003347,0.00024581,-0.00005087,0.00010030,-0.0
 0162237,0.00115068,0.00079280,-0.00031229,0.00050639,0.00033423,-0.000
 02082,-0.00001576,0.00000631,-0.00004015,-0.00001678,0.00004137,-0.000
 77207,-0.00049102,0.00038092,0.00006541,-0.00003872,0.00039295,-0.0000
 3134,-0.00001039,0.00002602,-0.00002603,-0.00000335,0.00000035,-0.0004
 0572,0.00007177,-0.00935656,0.00744119,-0.00547530,0.32251730,-0.00023
 034,-0.00003770,-0.00005807,0.00176826,-0.00000132,-0.00143464,0.00006
 418,0.00002499,-0.00095084,0.00004273,-0.00004188,0.00000399,-0.002349
 57,0.00133477,-0.02876308,-0.00009871,0.00021578,0.00004156,-0.0005233
 9,0.00004433,0.00116294,-0.00000877,0.00001617,-0.00000467,-0.04761248
 ,-0.00149011,-0.00403851,0.00005031,-0.00003033,0.00011735,0.00002154,
 0.00010822,0.00020915,-0.00061150,-0.00014338,0.00073277,-0.00003453,0
 .00004450,0.00010368,0.00009148,-0.00022744,0.00003895,-0.00001895,-0.
 00001828,0.00004620,-0.00000914,-0.00000717,0.00000769,0.00085920,-0.0
 0012004,0.00057408,-0.00422143,0.00253674,-0.00170577,0.00008138,-0.00
 006187,0.00026570,0.00002695,0.00000218,-0.00002933,0.00075801,0.00036
 847,-0.00016527,-0.00004391,0.00004085,0.00039036,0.00001324,-0.000005
 46,0.00000233,0.00000899,0.00000211,0.00001372,0.05128827,-0.00001846,
 -0.00012131,-0.00001316,-0.00097012,0.00018313,-0.00018531,0.00082181,
 0.00180704,-0.00091124,-0.00003391,0.00006542,-0.00000706,0.00120769,-
 0.00130652,0.01809406,-0.00003975,-0.00007892,-0.00004369,-0.00078187,
 -0.00149427,-0.03353496,-0.00001072,-0.00002114,0.00000762,-0.00155075
 ,-0.04617974,0.00680191,-0.00002011,-0.00000712,-0.00006250,0.00010224
 ,-0.00012751,0.00010184,0.00013006,0.00023853,-0.00038802,0.00037287,0
 .00020979,0.00036584,-0.00041600,-0.00033037,0.00087741,-0.00001319,-0
 .00000004,0.00002568,0.00000968,0.00002587,0.00000134,-0.00049411,-0.0
 0002106,0.00008861,0.00329883,-0.00095331,0.00083167,-0.00009148,-0.00
 000189,-0.00011284,0.00001256,-0.00004638,0.00001376,-0.00036857,-0.00
 594819,-0.00239884,0.00041035,0.00102590,0.00049836,0.00000021,0.00001
 012,-0.00000281,0.00000211,-0.00000863,0.00000295,-0.00252700,0.053918
 56,-0.00010045,-0.00010801,0.00022407,0.00094438,-0.00012728,0.0000770
 8,0.00025336,0.00096506,0.00038850,-0.00002985,-0.00000450,-0.00008446
 ,-0.00073012,0.00102405,-0.01058220,-0.00012883,-0.00001568,0.00043724
 ,0.00025675,-0.00068579,-0.01265113,-0.00002178,-0.00002023,0.00002769
 ,-0.00487085,0.00645885,-0.29444623,-0.00003865,0.00001865,-0.00001138
 ,0.00021313,0.00010685,0.00004852,-0.00077648,-0.00041035,0.00042517,0
 .00006542,-0.00003872,0.00039297,-0.00077208,-0.00049102,0.00038094,-0
 .00004015,-0.00001678,0.00004137,-0.00002083,-0.00001576,0.00000631,-0
 .00031229,0.00050638,0.00033421,-0.00162239,0.00115074,0.00079277,0.00
 024581,-0.00005087,0.00010031,0.00001291,0.00001768,-0.00003347,0.0001
 6522,-0.00239884,0.00061426,0.00034156,-0.00044268,0.00032283,-0.00002
 182,-0.00000362,-0.00000394,0.00001372,0.00000295,0.00000922,0.0074371
 6,-0.00547927,0.32251892,0.00043764,0.00059333,0.00016807,-0.00288678,
 0.00470311,-0.00311474,0.00110433,0.00030758,-0.00022415,0.00009980,-0
 .00004846,-0.00001940,-0.02171952,-0.01362136,0.00942472,-0.00100443,-
 0.00150995,0.00073615,0.00166373,0.00112539,-0.00076230,0.00006014,0.0
 0006692,0.00004989,-0.21794356,-0.10226383,0.06563301,-0.00042887,0.00
 048650,-0.00033330,-0.00001608,-0.00005398,-0.00007486,0.00031466,0.00
 014856,0.00002771,0.00001737,0.00012147,0.00011120,-0.00002813,0.00005
 720,0.00004990,-0.00000309,0.00001931,0.00001399,-0.00002778,-0.000076
 04,-0.00000800,0.00052783,0.00039664,0.00054581,0.00054444,-0.00034888
 ,-0.00057225,-0.00001837,-0.00001008,-0.00011612,0.00003141,0.00004201
 ,0.00006153,-0.00004391,-0.00041032,-0.00034156,0.00043178,-0.00045544
 ,-0.00022815,-0.00002845,-0.00004414,-0.00000018,0.00001324,0.00000021
 ,-0.00002182,0.00070847,0.00093374,-0.00040549,0.23840861,0.00063851,-
 0.00026464,0.00010530,0.00268424,-0.00190186,0.00155523,0.00189412,-0.
 00600789,-0.00368494,-0.00015505,0.00020729,-0.00004409,0.01492594,0.0
 0913221,-0.00636511,0.00078343,0.00075441,-0.00026281,-0.02608071,-0.0
 1474563,0.01119880,-0.00002910,-0.00007105,0.00003862,-0.10232237,-0.1
 0690259,0.03911387,0.00021324,-0.00024420,0.00012526,-0.00007017,0.000
 06110,-0.00004583,-0.00013403,-0.00014636,0.00002346,-0.00190635,-0.00
 098505,0.00035024,0.00037865,0.00022012,-0.00003565,0.00001979,-0.0000
 1441,0.00000195,0.00010246,0.00009644,0.00001635,-0.00055225,0.0004828
 6,-0.00054148,-0.00076266,0.00040278,-0.00003886,-0.00000399,-0.000001
 12,0.00004192,-0.00004768,0.00003506,-0.00003625,-0.00004082,0.0010259
 1,-0.00044269,0.00045544,0.00054817,0.00078431,-0.00004414,0.00003266,
 0.00000099,-0.00000546,0.00001012,-0.00000362,-0.00000871,-0.00085458,
 0.00007192,0.10996182,0.11904587,0.00018329,0.00007054,0.00001876,-0.0
 0097651,0.00125407,-0.00055323,0.00055119,-0.00194562,-0.00071706,-0.0
 0002429,0.00004019,-0.00005677,-0.00984369,-0.00580776,0.00285601,-0.0
 0040378,-0.00016511,0.00056151,-0.01117099,-0.00660550,0.00340739,0.00
 000637,0.00001015,0.00002604,0.06668664,0.03975648,-0.07375400,-0.0001
 5107,0.00011268,-0.00008480,0.00001341,0.00001672,-0.00002732,-0.00034
 486,-0.00014913,0.00040271,-0.00038316,-0.00035397,0.00049649,-0.00026
 805,-0.00025890,0.00036749,0.00000642,-0.00000690,0.00001350,0.0000208
 8,0.00000346,0.00001468,0.00073498,-0.00015728,0.00014136,0.00019102,-
 0.00056257,0.00028219,0.00009289,-0.00005338,0.00000519,-0.00000061,0.
 00000547,-0.00000406,-0.00039034,0.00049838,0.00032281,0.00022817,0.00
 078431,0.00021422,-0.00000018,0.00000099,-0.00000727,0.00000233,-0.000
 00281,-0.00000394,0.02597548,0.01542705,-0.00935592,-0.07068275,-0.041
 90170,0.07542320,0.00043763,-0.00059333,-0.00016808,-0.00288687,-0.004
 70312,0.00311474,0.00009980,0.00004846,0.00001940,0.00110431,-0.000307
 63,0.00022412,-0.00100442,0.00150997,-0.00073616,-0.02171976,0.0136217
 1,-0.00942498,0.00006013,-0.00006692,-0.00004989,0.00166393,-0.0011255
 4,0.00076239,-0.00042888,-0.00048650,0.00033330,-0.21794167,0.10226549
 ,-0.06563599,-0.00001608,0.00005398,0.00007486,0.00031466,-0.00014857,
 -0.00002771,-0.00002778,0.00007604,0.00000800,-0.00000309,-0.00001931,
 -0.00001399,-0.00002813,-0.00005720,-0.00004990,0.00001738,-0.00012147
 ,-0.00011119,0.00003141,-0.00004201,-0.00006153,-0.00001837,0.00001008
 ,0.00011612,0.00054448,0.00034889,0.00057226,0.00052782,-0.00039663,-0
 .00054581,0.00001324,-0.00000021,0.00002182,-0.00002844,0.00004414,0.0
 0000018,0.00043178,0.00045543,0.00022815,-0.00004389,0.00041034,0.0003
 4156,0.00003174,0.00000841,-0.00002603,-0.00024622,0.00011291,-0.00005
 705,0.23840659,-0.00063851,-0.00026462,0.00010532,-0.00268420,-0.00190
 178,0.00155517,0.00015505,0.00020729,-0.00004409,-0.00189425,-0.006007
 93,-0.00368488,-0.00078340,0.00075440,-0.00026279,-0.01492554,0.009132
 12,-0.00636508,0.00002910,-0.00007105,0.00003862,0.02608080,-0.0147462
 6,0.01119903,-0.00021324,-0.00024418,0.00012526,0.10232392,-0.10690444
 ,0.03911651,0.00007017,0.00006110,-0.00004583,0.00013403,-0.00014636,0
 .00002346,-0.00010246,0.00009644,0.00001635,-0.00001980,-0.00001441,0.
 00000195,-0.00037865,0.00022013,-0.00003565,0.00190635,-0.00098510,0.0
 0035023,0.00004768,0.00003506,-0.00003625,0.00000398,-0.00000113,0.000
 04192,0.00076265,0.00040279,-0.00003887,0.00055225,0.00048283,-0.00054
 147,0.00000546,0.00001012,-0.00000362,0.00004414,0.00003266,0.00000099
 ,-0.00045543,0.00054818,0.00078431,0.00004085,0.00102592,-0.00044270,0
 .00000708,-0.00000411,-0.00000335,-0.00011291,0.00008851,-0.00002186,-
 0.10996345,0.11904822,-0.00018329,0.00007055,0.00001877,0.00097660,0.0
 0125407,-0.00055322,0.00002429,0.00004018,-0.00005677,-0.00055118,-0.0
 0194560,-0.00071700,0.00040378,-0.00016512,0.00056151,0.00984376,-0.00
 580786,0.00285613,-0.00000637,0.00001015,0.00002604,0.01117066,-0.0066
 0564,0.00340743,0.00015107,0.00011268,-0.00008480,-0.06668985,0.039759
 31,-0.07375603,-0.00001342,0.00001672,-0.00002732,0.00034486,-0.000149
 13,0.00040270,-0.00002088,0.00000346,0.00001468,-0.00000642,-0.0000069
 0,0.00001350,0.00026805,-0.00025890,0.00036749,0.00038314,-0.00035398,
 0.00049648,0.00000061,0.00000547,-0.00000406,-0.00009289,-0.00005338,0
 .00000519,-0.00019101,-0.00056257,0.00028222,-0.00073498,-0.00015727,0
 .00014133,-0.00000233,-0.00000281,-0.00000394,0.00000018,0.00000099,-0
 .00000727,-0.00022815,0.00078431,0.00021418,0.00039037,0.00049834,0.00
 032283,-0.00000427,0.00001198,0.00000035,0.00005705,-0.00002187,0.0000
 1047,0.07068576,-0.04190446,0.07542540,-0.00023034,0.00003770,0.000058
 07,0.00176829,0.00000132,0.00143458,0.00004273,0.00004188,-0.00000399,
 0.00006417,-0.00002500,0.00095081,-0.00009872,-0.00021577,-0.00004158,
 -0.00234965,-0.00133453,0.02876329,-0.00000877,-0.00001617,0.00000467,
 -0.00052346,-0.00004436,-0.00116332,0.00005030,0.00003033,-0.00011735,
 -0.04761265,0.00149018,0.00404018,0.00002153,-0.00010822,-0.00020915,-
 0.00061147,0.00014339,-0.00073278,-0.00000914,0.00000718,-0.00000769,-
 0.00001895,0.00001828,-0.00004620,0.00009149,0.00022742,-0.00003895,-0
 .00003453,-0.00004449,-0.00010368,0.00002695,-0.00000219,0.00002933,0.
 00008139,0.00006187,-0.00026570,-0.00422149,-0.00253667,0.00170575,0.0
 0085924,0.00012004,-0.00057406,0.00000899,-0.00000211,-0.00001372,0.00
 001324,0.00000546,-0.00000233,-0.00004390,-0.00004085,-0.00039037,0.00
 075803,-0.00036856,0.00016522,-0.00005205,0.00002549,-0.00003134,0.000
 03174,-0.00000708,0.00000427,0.00070871,0.00000832,-0.02597516,0.05128
 831,0.00001847,-0.00012131,-0.00001315,0.00097005,0.00018308,-0.000185
 34,0.00003391,0.00006542,-0.00000707,-0.00082182,0.00180706,-0.0009112
 2,0.00003974,-0.00007891,-0.00004368,-0.00120775,-0.00130640,0.0180936
 0,0.00001072,-0.00002115,0.00000762,0.00078197,-0.00149442,-0.03353487
 ,0.00002011,-0.00000712,-0.00006250,0.00155086,-0.04617999,0.00679849,
 -0.00010224,-0.00012751,0.00010185,-0.00013004,0.00023853,-0.00038799,
 -0.00000968,0.00002588,0.00000134,0.00001319,-0.00000004,0.00002568,0.
 00041600,-0.00033034,0.00087741,-0.00037286,0.00020979,0.00036586,-0.0
 0001256,-0.00004637,0.00001376,0.00009148,-0.00000189,-0.00011284,-0.0
 0329881,-0.00095320,0.00083168,0.00049409,-0.00002104,0.00008865,-0.00
 000211,-0.00000863,0.00000295,-0.00000021,0.00001012,-0.00000281,-0.00
 041032,0.00102593,0.00049834,0.00036848,-0.00594820,-0.00239878,-0.000
 02549,0.00002073,-0.00001039,-0.00000841,-0.00000411,0.00001198,-0.000
 93394,-0.00085439,0.01542724,0.00252716,0.05391851,0.00010044,-0.00010
 800,0.00022407,-0.00094431,-0.00012727,0.00007706,0.00002985,-0.000004
 50,-0.00008445,-0.00025333,0.00096501,0.00038848,0.00012883,-0.0000156
 9,0.00043723,0.00073011,0.00102401,-0.01058221,0.00002178,-0.00002023,
 0.00002769,-0.00025676,-0.00068577,-0.01265062,0.00003865,0.00001865,-
 0.00001138,0.00487233,0.00645557,-0.29444454,-0.00021313,0.00010685,0.
 00004852,0.00077647,-0.00041035,0.00042514,0.00002082,-0.00001576,0.00
 000631,0.00004015,-0.00001678,0.00004137,0.00077206,-0.00049102,0.0003
 8092,-0.00006541,-0.00003872,0.00039296,-0.00001291,0.00001768,-0.0000
 3347,-0.00024581,-0.00005086,0.00010031,0.00162243,0.00115070,0.000792
 78,0.00031229,0.00050639,0.00033424,-0.00001372,0.00000295,0.00000922,
 0.00002182,-0.00000362,-0.00000394,-0.00034157,-0.00044269,0.00032285,
 -0.00016524,-0.00239878,0.00061432,0.00003134,-0.00001039,0.00002602,0
 .00002603,-0.00000335,0.00000035,0.00040563,0.00007178,-0.00935628,-0.
 00743885,-0.00547580,0.32251706\\0.00000031,0.00003620,0.00027751,0.00
 000010,-0.00003590,-0.00027779,0.00008249,0.00001730,-0.00011555,-0.00
 008206,0.00001889,-0.00011672,0.00008398,-0.00001893,0.00011717,-0.000
 08381,-0.00001907,0.00011675,0.00000147,0.00002262,0.00004404,-0.00000
 114,0.00002184,0.00004312,-0.00000013,-0.00002095,-0.00004414,-0.00000
 094,-0.00002166,-0.00004376,-0.00000018,0.00001344,-0.00011617,-0.0000
 0029,-0.00001345,0.00011603,-0.00001155,-0.00002088,0.00001778,-0.0000
 3017,0.00001502,0.00004996,0.00003010,0.00001461,0.00005135,0.00001070
 ,-0.00002136,0.00001785,-0.00001089,0.00002163,-0.00001785,-0.00003003
 ,-0.00001530,-0.00005064,0.00003022,-0.00001505,-0.00005062,0.00001072
 ,0.00002152,-0.00001753,0.00000793,0.00002304,0.00001882,0.00005349,-0
 .00000735,0.00000630,-0.00005326,-0.00000660,0.00000662,-0.00000793,0.
 00002324,0.00001879,0.00000767,-0.00002371,-0.00001960,0.00005478,0.00
 000744,-0.00000629,-0.00005387,0.00000663,-0.00000665,-0.00000770,-0.0
 0002322,-0.00001878\\\@


 "A LITTLE BIT GOES A LONG WAY"
 R.S. MULLIKEN AS QUOTED BY K. RUEDENBERG
 Job cpu time:       0 days  6 hours 38 minutes 38.1 seconds.
 Elapsed time:       0 days  0 hours 25 minutes  1.6 seconds.
 File lengths (MBytes):  RWF=    277 Int=      0 D2E=      0 Chk=     11 Scr=      1
 Normal termination of Gaussian 16 at Sat Sep 27 22:25:53 2025.
