 Entering Gaussian System, Link 0=g16
 Input=TYLL0079.gjf
 Output=TYLL0079.log
 Initial command:
 /usr/local/g16/l1.exe "/dados_01/scratch/Gau-2307607.inp" -scrdir="/dados_01/scratch/"
 Entering Link 1 = /usr/local/g16/l1.exe PID=   2307608.
  
 Copyright (c) 1988-2017, Gaussian, Inc.  All Rights Reserved.
  
 This is part of the Gaussian(R) 16 program.  It is based on
 the Gaussian(R) 09 system (copyright 2009, Gaussian, Inc.),
 the Gaussian(R) 03 system (copyright 2003, Gaussian, Inc.),
 the Gaussian(R) 98 system (copyright 1998, Gaussian, Inc.),
 the Gaussian(R) 94 system (copyright 1995, Gaussian, Inc.),
 the Gaussian 92(TM) system (copyright 1992, Gaussian, Inc.),
 the Gaussian 90(TM) system (copyright 1990, Gaussian, Inc.),
 the Gaussian 88(TM) system (copyright 1988, Gaussian, Inc.),
 the Gaussian 86(TM) system (copyright 1986, Carnegie Mellon
 University), and the Gaussian 82(TM) system (copyright 1983,
 Carnegie Mellon University). Gaussian is a federally registered
 trademark of Gaussian, Inc.
  
 This software contains proprietary and confidential information,
 including trade secrets, belonging to Gaussian, Inc.
  
 This software is provided under written license and may be
 used, copied, transmitted, or stored only in accord with that
 written license.
  
 The following legend is applicable only to US Government
 contracts under FAR:
  
                    RESTRICTED RIGHTS LEGEND
  
 Use, reproduction and disclosure by the US Government is
 subject to restrictions as set forth in subparagraphs (a)
 and (c) of the Commercial Computer Software - Restricted
 Rights clause in FAR 52.227-19.
  
 Gaussian, Inc.
 340 Quinnipiac St., Bldg. 40, Wallingford CT 06492
  
  
 ---------------------------------------------------------------
 Warning -- This program may not be used in any manner that
 competes with the business of Gaussian, Inc. or will provide
 assistance to any competitor of Gaussian, Inc.  The licensee
 of this program is prohibited from giving any competitor of
 Gaussian, Inc. access to this program.  By using this program,
 the user acknowledges that Gaussian, Inc. is engaged in the
 business of creating and licensing software in the field of
 computational chemistry and represents and warrants to the
 licensee that it is not a competitor of Gaussian, Inc. and that
 it will not use this program in any manner prohibited above.
 ---------------------------------------------------------------
  

 Cite this work as:
 Gaussian 16, Revision B.01,
 M. J. Frisch, G. W. Trucks, H. B. Schlegel, G. E. Scuseria, 
 M. A. Robb, J. R. Cheeseman, G. Scalmani, V. Barone, 
 G. A. Petersson, H. Nakatsuji, X. Li, M. Caricato, A. V. Marenich, 
 J. Bloino, B. G. Janesko, R. Gomperts, B. Mennucci, H. P. Hratchian, 
 J. V. Ortiz, A. F. Izmaylov, J. L. Sonnenberg, D. Williams-Young, 
 F. Ding, F. Lipparini, F. Egidi, J. Goings, B. Peng, A. Petrone, 
 T. Henderson, D. Ranasinghe, V. G. Zakrzewski, J. Gao, N. Rega, 
 G. Zheng, W. Liang, M. Hada, M. Ehara, K. Toyota, R. Fukuda, 
 J. Hasegawa, M. Ishida, T. Nakajima, Y. Honda, O. Kitao, H. Nakai, 
 T. Vreven, K. Throssell, J. A. Montgomery, Jr., J. E. Peralta, 
 F. Ogliaro, M. J. Bearpark, J. J. Heyd, E. N. Brothers, K. N. Kudin, 
 V. N. Staroverov, T. A. Keith, R. Kobayashi, J. Normand, 
 K. Raghavachari, A. P. Rendell, J. C. Burant, S. S. Iyengar, 
 J. Tomasi, M. Cossi, J. M. Millam, M. Klene, C. Adamo, R. Cammi, 
 J. W. Ochterski, R. L. Martin, K. Morokuma, O. Farkas, 
 J. B. Foresman, and D. J. Fox, Gaussian, Inc., Wallingford CT, 2016.
 
 ******************************************
 Gaussian 16:  ES64L-G16RevB.01 20-Dec-2017
                27-Sep-2025 
 ******************************************
 %nprocs=16
 Will use up to   16 processors via shared memory.
 %mem=40GB
 %chk=TYLL0079.chk
 ----------------------------------------------------------------------
 # opt freq=noraman M08HX/6-311++G** scf=xqc Empiricaldispersion=pfd In
 t(Grid=ultraFine)
 ----------------------------------------------------------------------
 1/18=20,19=15,26=4,38=1/1,3;
 2/9=110,12=2,17=6,18=5,40=1/2;
 3/5=4,6=6,7=1111,11=2,25=1,30=1,71=1,74=-74,75=-5,124=11/1,2,3;
 4//1;
 5/5=2,8=3,13=1,38=5/2,8;
 6/7=2,8=2,9=2,10=2,28=1/1;
 7//1,2,3,16;
 1/18=20,19=15,26=4/3(2);
 2/9=110/2;
 99//99;
 2/9=110/2;
 3/5=4,6=6,7=1111,11=2,25=1,30=1,71=1,74=-74,75=-5,124=11/1,2,3;
 4/5=5,16=3,69=1/1;
 5/5=2,8=3,13=1,38=5/2,8;
 7//1,2,3,16;
 1/18=20,19=15,26=4/3(-5);
 2/9=110/2;
 6/7=2,8=2,9=2,10=2,19=2,28=1/1;
 99/9=1/99;
 --------
 TYLL0079
 --------
 Symbolic Z-matrix:
 Charge =  0 Multiplicity = 1
 O                     0.018    -0.0333   -2.0796 
 C                    -0.0278    0.0268   -0.6175 
 C                    -1.3596    0.5844   -0.2436 
 C                     0.1784   -1.4655   -0.1918 
 C                     1.2048    0.8945   -0.1906 
 C                    -2.5247   -0.0003   -0.7398 
 C                    -0.4753   -1.8924    0.9211 
 C                     1.7438    0.6505    1.0327 
 C                    -1.44      1.6904    0.6027 
 C                     0.9959   -2.2276   -0.9657 
 C                     1.6454    1.8274   -1.075 
 C                    -3.7703    0.5209   -0.39 
 C                    -0.2919   -3.222     1.3005 
 C                     2.8413    1.4228    1.4129 
 C                    -2.6857    2.2116    0.9526 
 C                     1.1791   -3.5574   -0.5863 
 C                     2.7432    2.5997   -0.6948 
 C                    -3.8509    1.6268    0.4561 
 C                     0.5352   -4.0545    0.5468 
 C                     3.341     2.3973    0.5492 
 H                    -2.4856   -0.8617   -1.4017 
 H                    -1.1022   -1.264     1.5425 
 H                     1.3649   -0.0789    1.7366 
 H                    -0.5719    2.1858    1.0223 
 H                     1.5245   -1.8587   -1.8375 
 H                     1.1873    2.0199   -2.0379 
 H                    -0.6744    0.536    -2.4554 
 H                    -4.6776    0.0659   -0.7764 
 H                    -0.7878   -3.6077    2.1866 
 H                     3.3032    1.27      2.3841 
 H                    -2.7495    3.0723    1.6121 
 H                     1.8276   -4.2045   -1.1698 
 H                     3.1294    3.3624   -1.3649 
 H                    -4.8207    2.0326    0.7287 
 H                     0.6802   -5.0891    0.8438 
 H                     4.1939    3.0005    0.8463 
 

 GradGradGradGradGradGradGradGradGradGradGradGradGradGradGradGradGradGrad
 Berny optimization.
 Initialization pass.
                           ----------------------------
                           !    Initial Parameters    !
                           ! (Angstroms and Degrees)  !
 --------------------------                            --------------------------
 ! Name  Definition              Value          Derivative Info.                !
 --------------------------------------------------------------------------------
 ! R1    R(1,2)                  1.4641         estimate D2E/DX2                !
 ! R2    R(1,27)                 0.972          estimate D2E/DX2                !
 ! R3    R(2,3)                  1.4914         estimate D2E/DX2                !
 ! R4    R(2,4)                  1.5655         estimate D2E/DX2                !
 ! R5    R(2,5)                  1.5667         estimate D2E/DX2                !
 ! R6    R(3,6)                  1.3948         estimate D2E/DX2                !
 ! R7    R(3,9)                  1.395          estimate D2E/DX2                !
 ! R8    R(4,7)                  1.3595         estimate D2E/DX2                !
 ! R9    R(4,10)                 1.3594         estimate D2E/DX2                !
 ! R10   R(5,8)                  1.3589         estimate D2E/DX2                !
 ! R11   R(5,11)                 1.3589         estimate D2E/DX2                !
 ! R12   R(6,12)                 1.3948         estimate D2E/DX2                !
 ! R13   R(6,21)                 1.087          estimate D2E/DX2                !
 ! R14   R(7,13)                 1.3948         estimate D2E/DX2                !
 ! R15   R(7,22)                 1.0835         estimate D2E/DX2                !
 ! R16   R(8,14)                 1.3948         estimate D2E/DX2                !
 ! R17   R(8,23)                 1.0822         estimate D2E/DX2                !
 ! R18   R(9,15)                 1.3949         estimate D2E/DX2                !
 ! R19   R(9,24)                 1.084          estimate D2E/DX2                !
 ! R20   R(10,16)                1.3949         estimate D2E/DX2                !
 ! R21   R(10,25)                1.0842         estimate D2E/DX2                !
 ! R22   R(11,17)                1.395          estimate D2E/DX2                !
 ! R23   R(11,26)                1.0836         estimate D2E/DX2                !
 ! R24   R(12,18)                1.3948         estimate D2E/DX2                !
 ! R25   R(12,28)                1.0861         estimate D2E/DX2                !
 ! R26   R(13,19)                1.3947         estimate D2E/DX2                !
 ! R27   R(13,29)                1.0862         estimate D2E/DX2                !
 ! R28   R(14,20)                1.3948         estimate D2E/DX2                !
 ! R29   R(14,30)                1.0862         estimate D2E/DX2                !
 ! R30   R(15,18)                1.3951         estimate D2E/DX2                !
 ! R31   R(15,31)                1.0862         estimate D2E/DX2                !
 ! R32   R(16,19)                1.3949         estimate D2E/DX2                !
 ! R33   R(16,32)                1.0862         estimate D2E/DX2                !
 ! R34   R(17,20)                1.3949         estimate D2E/DX2                !
 ! R35   R(17,33)                1.0862         estimate D2E/DX2                !
 ! R36   R(18,34)                1.086          estimate D2E/DX2                !
 ! R37   R(19,35)                1.0861         estimate D2E/DX2                !
 ! R38   R(20,36)                1.0861         estimate D2E/DX2                !
 ! A1    A(2,1,27)             109.864          estimate D2E/DX2                !
 ! A2    A(1,2,3)              107.0762         estimate D2E/DX2                !
 ! A3    A(1,2,4)              103.198          estimate D2E/DX2                !
 ! A4    A(1,2,5)              105.6791         estimate D2E/DX2                !
 ! A5    A(3,2,4)              113.9436         estimate D2E/DX2                !
 ! A6    A(3,2,5)              115.2882         estimate D2E/DX2                !
 ! A7    A(4,2,5)              110.5016         estimate D2E/DX2                !
 ! A8    A(2,3,6)              119.9989         estimate D2E/DX2                !
 ! A9    A(2,3,9)              119.9987         estimate D2E/DX2                !
 ! A10   A(6,3,9)              120.0024         estimate D2E/DX2                !
 ! A11   A(2,4,7)              117.2982         estimate D2E/DX2                !
 ! A12   A(2,4,10)             117.3101         estimate D2E/DX2                !
 ! A13   A(7,4,10)             125.3917         estimate D2E/DX2                !
 ! A14   A(2,5,8)              117.2535         estimate D2E/DX2                !
 ! A15   A(2,5,11)             117.2568         estimate D2E/DX2                !
 ! A16   A(8,5,11)             125.4897         estimate D2E/DX2                !
 ! A17   A(3,6,12)             120.0056         estimate D2E/DX2                !
 ! A18   A(3,6,21)             121.2482         estimate D2E/DX2                !
 ! A19   A(12,6,21)            118.7461         estimate D2E/DX2                !
 ! A20   A(4,7,13)             117.3098         estimate D2E/DX2                !
 ! A21   A(4,7,22)             124.4424         estimate D2E/DX2                !
 ! A22   A(13,7,22)            118.2248         estimate D2E/DX2                !
 ! A23   A(5,8,14)             117.2626         estimate D2E/DX2                !
 ! A24   A(5,8,23)             124.5909         estimate D2E/DX2                !
 ! A25   A(14,8,23)            118.1252         estimate D2E/DX2                !
 ! A26   A(3,9,15)             119.9925         estimate D2E/DX2                !
 ! A27   A(3,9,24)             123.4368         estimate D2E/DX2                !
 ! A28   A(15,9,24)            116.5704         estimate D2E/DX2                !
 ! A29   A(4,10,16)            117.2947         estimate D2E/DX2                !
 ! A30   A(4,10,25)            124.0692         estimate D2E/DX2                !
 ! A31   A(16,10,25)           118.6214         estimate D2E/DX2                !
 ! A32   A(5,11,17)            117.2472         estimate D2E/DX2                !
 ! A33   A(5,11,26)            124.2801         estimate D2E/DX2                !
 ! A34   A(17,11,26)           118.4591         estimate D2E/DX2                !
 ! A35   A(6,12,18)            120.0008         estimate D2E/DX2                !
 ! A36   A(6,12,28)            120.0172         estimate D2E/DX2                !
 ! A37   A(18,12,28)           119.9819         estimate D2E/DX2                !
 ! A38   A(7,13,19)            119.999          estimate D2E/DX2                !
 ! A39   A(7,13,29)            120.0241         estimate D2E/DX2                !
 ! A40   A(19,13,29)           119.9757         estimate D2E/DX2                !
 ! A41   A(8,14,20)            119.998          estimate D2E/DX2                !
 ! A42   A(8,14,30)            120.0272         estimate D2E/DX2                !
 ! A43   A(20,14,30)           119.9737         estimate D2E/DX2                !
 ! A44   A(9,15,18)            119.9985         estimate D2E/DX2                !
 ! A45   A(9,15,31)            120.0544         estimate D2E/DX2                !
 ! A46   A(18,15,31)           119.947          estimate D2E/DX2                !
 ! A47   A(10,16,19)           120.0035         estimate D2E/DX2                !
 ! A48   A(10,16,32)           120.016          estimate D2E/DX2                !
 ! A49   A(19,16,32)           119.9796         estimate D2E/DX2                !
 ! A50   A(11,17,20)           119.997          estimate D2E/DX2                !
 ! A51   A(11,17,33)           120.0244         estimate D2E/DX2                !
 ! A52   A(20,17,33)           119.9777         estimate D2E/DX2                !
 ! A53   A(12,18,15)           120.0002         estimate D2E/DX2                !
 ! A54   A(12,18,34)           120.0084         estimate D2E/DX2                !
 ! A55   A(15,18,34)           119.9914         estimate D2E/DX2                !
 ! A56   A(13,19,16)           120.0014         estimate D2E/DX2                !
 ! A57   A(13,19,35)           119.9992         estimate D2E/DX2                !
 ! A58   A(16,19,35)           119.9992         estimate D2E/DX2                !
 ! A59   A(14,20,17)           120.0055         estimate D2E/DX2                !
 ! A60   A(14,20,36)           120.0003         estimate D2E/DX2                !
 ! A61   A(17,20,36)           119.994          estimate D2E/DX2                !
 ! D1    D(27,1,2,3)            17.3924         estimate D2E/DX2                !
 ! D2    D(27,1,2,4)           137.9304         estimate D2E/DX2                !
 ! D3    D(27,1,2,5)          -105.9999         estimate D2E/DX2                !
 ! D4    D(1,2,3,6)             53.4366         estimate D2E/DX2                !
 ! D5    D(1,2,3,9)           -126.5843         estimate D2E/DX2                !
 ! D6    D(4,2,3,6)            -60.0004         estimate D2E/DX2                !
 ! D7    D(4,2,3,9)            119.9786         estimate D2E/DX2                !
 ! D8    D(5,2,3,6)            170.6822         estimate D2E/DX2                !
 ! D9    D(5,2,3,9)             -9.3388         estimate D2E/DX2                !
 ! D10   D(1,2,4,7)           -145.733          estimate D2E/DX2                !
 ! D11   D(1,2,4,10)            34.244          estimate D2E/DX2                !
 ! D12   D(3,2,4,7)            -30.0022         estimate D2E/DX2                !
 ! D13   D(3,2,4,10)           149.9748         estimate D2E/DX2                !
 ! D14   D(5,2,4,7)            101.683          estimate D2E/DX2                !
 ! D15   D(5,2,4,10)           -78.3401         estimate D2E/DX2                !
 ! D16   D(1,2,5,8)           -151.9682         estimate D2E/DX2                !
 ! D17   D(1,2,5,11)            28.0022         estimate D2E/DX2                !
 ! D18   D(3,2,5,8)             90.002          estimate D2E/DX2                !
 ! D19   D(3,2,5,11)           -90.0276         estimate D2E/DX2                !
 ! D20   D(4,2,5,8)            -40.9827         estimate D2E/DX2                !
 ! D21   D(4,2,5,11)           138.9877         estimate D2E/DX2                !
 ! D22   D(2,3,6,12)           179.9873         estimate D2E/DX2                !
 ! D23   D(2,3,6,21)            -0.1097         estimate D2E/DX2                !
 ! D24   D(9,3,6,12)             0.0082         estimate D2E/DX2                !
 ! D25   D(9,3,6,21)           179.9113         estimate D2E/DX2                !
 ! D26   D(2,3,9,15)          -179.9834         estimate D2E/DX2                !
 ! D27   D(2,3,9,24)            -0.1796         estimate D2E/DX2                !
 ! D28   D(6,3,9,15)            -0.0043         estimate D2E/DX2                !
 ! D29   D(6,3,9,24)           179.7995         estimate D2E/DX2                !
 ! D30   D(2,4,7,13)           179.9914         estimate D2E/DX2                !
 ! D31   D(2,4,7,22)            -1.7886         estimate D2E/DX2                !
 ! D32   D(10,4,7,13)            0.0165         estimate D2E/DX2                !
 ! D33   D(10,4,7,22)          178.2364         estimate D2E/DX2                !
 ! D34   D(2,4,10,16)         -179.9817         estimate D2E/DX2                !
 ! D35   D(2,4,10,25)            1.4393         estimate D2E/DX2                !
 ! D36   D(7,4,10,16)           -0.0068         estimate D2E/DX2                !
 ! D37   D(7,4,10,25)         -178.5858         estimate D2E/DX2                !
 ! D38   D(2,5,8,14)           179.9925         estimate D2E/DX2                !
 ! D39   D(2,5,8,23)            -1.7191         estimate D2E/DX2                !
 ! D40   D(11,5,8,14)            0.0248         estimate D2E/DX2                !
 ! D41   D(11,5,8,23)          178.3133         estimate D2E/DX2                !
 ! D42   D(2,5,11,17)         -179.984          estimate D2E/DX2                !
 ! D43   D(2,5,11,26)            1.3842         estimate D2E/DX2                !
 ! D44   D(8,5,11,17)           -0.0163         estimate D2E/DX2                !
 ! D45   D(8,5,11,26)         -178.6481         estimate D2E/DX2                !
 ! D46   D(3,6,12,18)           -0.0039         estimate D2E/DX2                !
 ! D47   D(3,6,12,28)          179.9883         estimate D2E/DX2                !
 ! D48   D(21,6,12,18)        -179.9094         estimate D2E/DX2                !
 ! D49   D(21,6,12,28)           0.0828         estimate D2E/DX2                !
 ! D50   D(4,7,13,19)           -0.0163         estimate D2E/DX2                !
 ! D51   D(4,7,13,29)          179.5774         estimate D2E/DX2                !
 ! D52   D(22,7,13,19)        -178.3502         estimate D2E/DX2                !
 ! D53   D(22,7,13,29)           1.2435         estimate D2E/DX2                !
 ! D54   D(5,8,14,20)           -0.018          estimate D2E/DX2                !
 ! D55   D(5,8,14,30)          179.5916         estimate D2E/DX2                !
 ! D56   D(23,8,14,20)        -178.4204         estimate D2E/DX2                !
 ! D57   D(23,8,14,30)           1.1892         estimate D2E/DX2                !
 ! D58   D(3,9,15,18)           -0.0039         estimate D2E/DX2                !
 ! D59   D(3,9,15,31)          179.9541         estimate D2E/DX2                !
 ! D60   D(24,9,15,18)        -179.8209         estimate D2E/DX2                !
 ! D61   D(24,9,15,31)           0.1371         estimate D2E/DX2                !
 ! D62   D(4,10,16,19)          -0.0032         estimate D2E/DX2                !
 ! D63   D(4,10,16,32)        -179.6534         estimate D2E/DX2                !
 ! D64   D(25,10,16,19)        178.6559         estimate D2E/DX2                !
 ! D65   D(25,10,16,32)         -0.9943         estimate D2E/DX2                !
 ! D66   D(5,11,17,20)           0.0009         estimate D2E/DX2                !
 ! D67   D(5,11,17,33)        -179.6658         estimate D2E/DX2                !
 ! D68   D(26,11,17,20)        178.7151         estimate D2E/DX2                !
 ! D69   D(26,11,17,33)         -0.9516         estimate D2E/DX2                !
 ! D70   D(6,12,18,15)          -0.0043         estimate D2E/DX2                !
 ! D71   D(6,12,18,34)        -179.9879         estimate D2E/DX2                !
 ! D72   D(28,12,18,15)       -179.9965         estimate D2E/DX2                !
 ! D73   D(28,12,18,34)          0.0198         estimate D2E/DX2                !
 ! D74   D(7,13,19,16)           0.0074         estimate D2E/DX2                !
 ! D75   D(7,13,19,35)         179.8299         estimate D2E/DX2                !
 ! D76   D(29,13,19,16)       -179.5865         estimate D2E/DX2                !
 ! D77   D(29,13,19,35)          0.236          estimate D2E/DX2                !
 ! D78   D(8,14,20,17)           0.0045         estimate D2E/DX2                !
 ! D79   D(8,14,20,36)         179.8352         estimate D2E/DX2                !
 ! D80   D(30,14,20,17)       -179.6053         estimate D2E/DX2                !
 ! D81   D(30,14,20,36)          0.2255         estimate D2E/DX2                !
 ! D82   D(9,15,18,12)           0.0082         estimate D2E/DX2                !
 ! D83   D(9,15,18,34)         179.9919         estimate D2E/DX2                !
 ! D84   D(31,15,18,12)       -179.9498         estimate D2E/DX2                !
 ! D85   D(31,15,18,34)          0.0338         estimate D2E/DX2                !
 ! D86   D(10,16,19,13)          0.0025         estimate D2E/DX2                !
 ! D87   D(10,16,19,35)       -179.82           estimate D2E/DX2                !
 ! D88   D(32,16,19,13)        179.6529         estimate D2E/DX2                !
 ! D89   D(32,16,19,35)         -0.1696         estimate D2E/DX2                !
 ! D90   D(11,17,20,14)          0.0043         estimate D2E/DX2                !
 ! D91   D(11,17,20,36)       -179.8265         estimate D2E/DX2                !
 ! D92   D(33,17,20,14)        179.6712         estimate D2E/DX2                !
 ! D93   D(33,17,20,36)         -0.1596         estimate D2E/DX2                !
 --------------------------------------------------------------------------------
 Trust Radius=3.00D-01 FncErr=1.00D-07 GrdErr=1.00D-06 EigMax=2.50D+02 EigMin=1.00D-04
 Number of steps in this run=    202 maximum allowed number of steps=    216.
 GradGradGradGradGradGradGradGradGradGradGradGradGradGradGradGradGradGrad

                          Input orientation:                          
 ---------------------------------------------------------------------
 Center     Atomic      Atomic             Coordinates (Angstroms)
 Number     Number       Type             X           Y           Z
 ---------------------------------------------------------------------
      1          8           0        0.018000   -0.033300   -2.079600
      2          6           0       -0.027800    0.026800   -0.617500
      3          6           0       -1.359600    0.584400   -0.243600
      4          6           0        0.178400   -1.465500   -0.191800
      5          6           0        1.204800    0.894500   -0.190600
      6          6           0       -2.524700   -0.000300   -0.739800
      7          6           0       -0.475300   -1.892400    0.921100
      8          6           0        1.743800    0.650500    1.032700
      9          6           0       -1.440000    1.690400    0.602700
     10          6           0        0.995900   -2.227600   -0.965700
     11          6           0        1.645400    1.827400   -1.075000
     12          6           0       -3.770300    0.520900   -0.390000
     13          6           0       -0.291900   -3.222000    1.300500
     14          6           0        2.841300    1.422800    1.412900
     15          6           0       -2.685700    2.211600    0.952600
     16          6           0        1.179100   -3.557400   -0.586300
     17          6           0        2.743200    2.599700   -0.694800
     18          6           0       -3.850900    1.626800    0.456100
     19          6           0        0.535200   -4.054500    0.546800
     20          6           0        3.341000    2.397300    0.549200
     21          1           0       -2.485600   -0.861700   -1.401700
     22          1           0       -1.102200   -1.264000    1.542500
     23          1           0        1.364900   -0.078900    1.736600
     24          1           0       -0.571900    2.185800    1.022300
     25          1           0        1.524500   -1.858700   -1.837500
     26          1           0        1.187300    2.019900   -2.037900
     27          1           0       -0.674400    0.536000   -2.455400
     28          1           0       -4.677600    0.065900   -0.776400
     29          1           0       -0.787800   -3.607700    2.186600
     30          1           0        3.303200    1.270000    2.384100
     31          1           0       -2.749500    3.072300    1.612100
     32          1           0        1.827600   -4.204500   -1.169800
     33          1           0        3.129400    3.362400   -1.364900
     34          1           0       -4.820700    2.032600    0.728700
     35          1           0        0.680200   -5.089100    0.843800
     36          1           0        4.193900    3.000500    0.846300
 ---------------------------------------------------------------------
                    Distance matrix (angstroms):
                    1          2          3          4          5
     1  O    0.000000
     2  C    1.464051   0.000000
     3  C    2.377021   1.491446   0.000000
     4  C    2.375019   1.565471   2.563244   0.000000
     5  C    2.416118   1.566668   2.583625   2.573538   0.000000
     6  C    2.874278   2.500040   1.394828   3.123118   3.874462
     7  C    3.564239   2.500175   2.876291   1.359453   3.438811
     8  C    3.623862   2.500146   3.356248   2.902987   1.358867
     9  C    3.505943   2.500152   1.394964   3.634578   2.873630
    10  C    2.648021   2.500305   3.738603   1.359420   3.223651
    11  C    2.668306   2.500213   3.356531   3.711512   1.358894
    12  C    4.184866   3.781825   2.415976   4.424624   4.993091
    13  C    4.657137   3.781954   4.244162   2.352325   4.626993
    14  C    4.721102   3.781941   4.592871   4.243628   2.351265
    15  C    4.641531   3.781930   2.416033   4.799353   4.263525
    16  C    3.999672   3.782072   4.870005   2.352249   4.469525
    17  C    4.034486   3.782093   4.593254   4.832914   2.351297
    18  C    4.914681   4.281204   2.789759   5.120288   5.149232
    19  C    4.830685   4.281305   5.072908   2.715835   5.048240
    20  C    4.884745   4.281270   5.100076   5.047013   2.714602
    21  H    2.722831   2.728586   2.168012   2.987529   4.262635
    22  H    3.986111   2.736074   2.583213   2.165256   3.603472
    23  H    4.047172   2.737256   3.432792   2.655027   2.165003
    24  H    3.859297   2.765189   2.188026   3.920329   2.509033
    25  H    2.379126   2.730045   4.102108   2.162156   3.224065
    26  H    2.363183   2.732481   3.430288   4.071115   2.163180
    27  H    0.971980   2.013766   2.316010   3.139611   2.964664
    28  H    4.874098   4.652679   3.400271   5.125200   5.969285
    29  H    5.623710   4.652974   4.879194   3.343553   5.467297
    30  H    5.693483   4.653032   5.395976   4.886982   3.342658
    31  H    5.561695   4.653368   3.400749   5.693706   4.860970
    32  H    4.636949   4.653111   5.826633   3.343421   5.229389
    33  H    4.660728   4.653251   5.396825   5.778684   3.342693
    34  H    5.963850   5.367251   3.875805   6.170496   6.200567
    35  H    5.877575   5.367410   6.126322   3.801940   6.094970
    36  H    5.933209   5.367341   6.153599   6.094838   3.800673
                    6          7          8          9         10
     6  C    0.000000
     7  C    3.246332   0.000000
     8  C    4.667482   3.376862   0.000000
     9  C    2.416060   3.724041   3.376814   0.000000
    10  C    4.172112   2.415948   3.582795   4.872803   0.000000
    11  C    4.565367   4.724267   2.416025   3.514703   4.108141
    12  C    1.394822   4.289525   5.696154   2.789889   5.531939
    13  C    4.419001   1.394782   4.383155   5.092812   2.789789
    14  C    5.954266   4.715109   1.394814   4.365497   4.731666
    15  C    2.789738   4.661510   4.697225   1.394937   6.077874
    16  C    5.137573   2.789537   4.543839   5.984381   1.394946
    17  C    5.874759   5.757503   2.789702   4.473197   5.140941
    18  C    2.415872   4.898537   5.708441   2.416190   6.353691
    19  C    5.239739   2.415758   4.881991   6.075230   2.416085
    20  C    6.466563   5.753606   2.415808   4.833273   5.402233
    21  H    1.087037   3.240224   5.108902   3.409415   3.765185
    22  H    2.971420   1.083526   3.467697   3.118623   3.409049
    23  H    4.611694   2.709273   1.082157   3.504799   3.472103
    24  H    3.420155   4.080599   2.778439   1.084012   5.088049
    25  H    4.588531   3.407376   3.818668   5.228666   1.084223
    26  H    4.420997   5.179383   3.407863   3.739525   4.384918
    27  H    2.579634   4.163835   4.245897   3.357195   3.556205
    28  H    2.154228   4.937182   6.696938   3.875948   6.122465
    29  H    4.959231   2.154391   5.086526   5.568121   3.875985
    30  H    6.733263   5.139864   2.154482   5.084100   5.364513
    31  H    3.875931   5.504336   5.137175   2.154838   6.982980
    32  H    6.066524   3.875696   5.331890   6.969133   2.154418
    33  H    6.608127   6.769976   3.875922   5.248471   5.996606
    34  H    3.400116   5.858766   6.715302   3.400310   7.406290
    35  H    6.218927   3.400007   5.840371   7.107390   3.400315
    36  H    7.527290   6.763689   3.400035   5.789346   6.390898
                   11         12         13         14         15
    11  C    0.000000
    12  C    5.613018   0.000000
    13  C    5.906993   5.382040   0.000000
    14  C    2.789897   6.912100   5.603904   0.000000
    15  C    4.797624   2.416071   5.947716   5.601947   0.000000
    16  C    5.427000   6.416200   2.415854   5.618016   7.112401
    17  C    1.395050   6.843975   6.861869   2.416013   5.686607
    18  C    5.709100   1.394775   6.073743   6.763329   1.395061
    19  C    6.201575   6.352103   1.394709   6.005751   7.057116
    20  C    2.416169   7.414416   6.733420   1.394750   6.043040
    21  H    4.939955   2.141395   4.205380   6.443351   3.876589
    22  H    4.894626   3.746890   2.132818   4.773561   3.864615
    23  H    3.408483   5.590391   3.579699   2.130643   4.718941
    24  H    3.073034   3.872499   5.422186   3.519186   2.115106
    25  H    3.766080   5.982697   3.873621   4.802843   6.486739
    26  H    1.083554   5.435106   6.388307   3.873018   4.896935
    27  H    2.992439   3.721653   5.326880   5.301915   4.297374
    28  H    6.570569   1.086059   5.861584   7.947834   3.400167
    29  H    6.789610   5.707847   1.086211   6.250993   6.244120
    30  H    3.876128   7.634866   5.854656   1.086245   6.229183
    31  H    5.299569   3.400012   6.764252   5.832459   1.086193
    32  H    6.035396   7.367087   3.399995   6.274108   8.126549
    33  H    2.154651   7.525318   7.884413   3.400180   6.364789
    34  H    6.716092   2.154081   6.960446   7.716620   2.154158
    35  H    7.242332   7.266451   2.153977   6.884698   8.039984
    36  H    3.400354   8.432398   7.684283   2.153996   6.925501
                   16         17         18         19         20
    16  C    0.000000
    17  C    6.353587   0.000000
    18  C    7.298180   6.764116   0.000000
    19  C    1.394859   7.120057   7.177971   0.000000
    20  C    6.435963   1.394943   7.233655   7.035499   0.000000
    21  H    4.621872   6.310416   3.392359   4.807895   6.955312
    22  H    3.872441   5.892435   4.134288   3.385172   5.842413
    23  H    4.186926   3.871216   5.635039   4.231952   3.383261
    24  H    6.215943   3.756279   3.374152   6.355558   3.947068
    25  H    2.137846   4.761126   6.804722   3.388973   5.206683
    26  H    5.763114   2.135629   5.635426   6.633569   3.387321
    27  H    4.866716   4.363320   4.444865   5.616852   5.349345
    28  H    6.889512   7.841879   2.153810   6.775090   8.455211
    29  H    3.400029   7.700795   6.306917   2.153811   7.469143
    30  H    6.053005   3.400195   7.417927   6.275970   2.153855
    31  H    8.013725   5.976194   2.153808   7.919305   6.219290
    32  H    1.086169   6.881939   8.300179   2.153953   6.987782
    33  H    7.231426   1.086230   7.419767   8.086710   2.154059
    34  H    8.305114   7.717547   1.086046   8.109965   8.171816
    35  H    2.154111   8.108076   8.110764   1.086108   7.950650
    36  H    7.358493   2.154103   8.170564   7.952912   1.086074
                   21         22         23         24         25
    21  H    0.000000
    22  H    3.277797   0.000000
    23  H    5.028723   2.743851   0.000000
    24  H    4.338811   3.528873   3.064357   0.000000
    25  H    4.155097   4.321761   3.995917   5.378785   0.000000
    26  H    4.711535   5.370761   4.322424   3.533714   3.898385
    27  H    2.518788   4.405249   4.702096   3.850551   3.309313
    28  H    2.460956   4.464237   6.545834   4.958434   6.579974
    29  H    4.826897   2.450845   4.158010   5.913277   4.959749
    30  H    7.237861   5.151407   2.448631   4.208276   5.547472
    31  H    4.962760   4.639174   5.183999   2.423982   7.381164
    32  H    5.461848   4.958512   5.067724   7.169298   2.457737
    33  H    7.026564   6.911077   4.957349   4.558808   5.482603
    34  H    4.285822   5.035582   6.613316   4.261687   7.873320
    35  H    5.738943   4.277443   5.134979   7.384022   4.282254
    36  H    8.036530   6.835154   4.275346   4.838136   6.159570
                   26         27         28         29         30
    26  H    0.000000
    27  H    2.417063   0.000000
    28  H    6.309243   4.366422   0.000000
    29  H    7.308714   6.223445   6.115983   0.000000
    30  H    4.959180   6.307204   8.667859   6.369242   0.000000
    31  H    5.470689   5.223353   4.296620   6.985751   6.362346
    32  H    6.317178   5.512269   7.791579   4.296732   6.691618
    33  H    2.454992   4.862779   8.494851   8.748709   4.296899
    34  H    6.614401   5.437840   2.480668   7.085389   8.325843
    35  H    7.687602   6.660436   7.609540   2.480460   7.049171
    36  H    4.280167   6.377721   9.484121   8.383439   2.480485
                   31         32         33         34         35
    31  H    0.000000
    32  H    9.035520   0.000000
    33  H    6.596071   7.680542   0.000000
    34  H    2.480170   9.311585   8.328002   0.000000
    35  H    8.886033   2.480651   9.072199   8.999542   0.000000
    36  H    6.985872   7.847041   2.480632   9.067176   8.819735
                   36
    36  H    0.000000
 Stoichiometry    C19H16O
 Framework group  C1[X(C19H16O)]
 Deg. of freedom   102
 Full point group                 C1      NOp   1
 Largest Abelian subgroup         C1      NOp   1
 Largest concise Abelian subgroup C1      NOp   1
                         Standard orientation:                         
 ---------------------------------------------------------------------
 Center     Atomic      Atomic             Coordinates (Angstroms)
 Number     Number       Type             X           Y           Z
 ---------------------------------------------------------------------
      1          8           0        0.021837    0.037043    2.062938
      2          6           0       -0.020554   -0.025437    0.600834
      3          6           0       -1.301656   -0.691861    0.227918
      4          6           0        0.059947    1.479220    0.176303
      5          6           0        1.279608   -0.786946    0.171725
      6          6           0       -2.510865   -0.206794    0.725984
      7          6           0       -0.628423    1.851045   -0.935455
      8          6           0        1.794903   -0.497810   -1.051954
      9          6           0       -1.290548   -1.800001   -0.619329
     10          6           0        0.811967    2.306198    0.949994
     11          6           0        1.797548   -1.680590    1.054750
     12          6           0       -3.709074   -0.829776    0.377104
     13          6           0       -0.557017    3.191628   -1.313813
     14          6           0        2.952535   -1.175559   -1.434120
     15          6           0       -2.488857   -2.422990   -0.968309
     16          6           0        0.883157    3.646964    0.571636
     17          6           0        2.955479   -2.358314    0.672583
     18          6           0       -3.698174   -1.937833   -0.469942
     19          6           0        0.198674    4.089579   -0.560268
     20          6           0        3.532814   -2.105711   -0.571902
     21          1           0       -2.542949    0.654308    1.388649
     22          1           0       -1.201474    1.173070   -1.556735
     23          1           0        1.355638    0.198038   -1.754739
     24          1           0       -0.384660   -2.220915   -1.040376
     25          1           0        1.370544    1.981939    1.820848
     26          1           0        1.358261   -1.911438    2.017986
     27          1           0       -0.620214   -0.588341    2.438986
     28          1           0       -4.650696   -0.452363    0.764958
     29          1           0       -1.084426    3.535368   -2.198989
     30          1           0        3.398909   -0.983948   -2.405698
     31          1           0       -2.481442   -3.285457   -1.628545
     32          1           0        1.476128    4.345407    1.155010
     33          1           0        3.404755   -3.086708    1.341529
     34          1           0       -4.631076   -2.422878   -0.741826
     35          1           0        0.256518    5.132918   -0.856459
     36          1           0        4.432694   -2.635421   -0.870533
 ---------------------------------------------------------------------
 Rotational constants (GHZ):           0.3820266           0.3704332           0.2314599
 Standard basis: 6-311++G(d,p) (5D, 7F)
 There are   572 symmetry adapted cartesian basis functions of A   symmetry.
 There are   552 symmetry adapted basis functions of A   symmetry.
   552 basis functions,   864 primitive gaussians,   572 cartesian basis functions
    69 alpha electrons       69 beta electrons
       nuclear repulsion energy      1459.1943499505 Hartrees.
 NAtoms=   36 NActive=   36 NUniq=   36 SFac= 1.00D+00 NAtFMM=   60 NAOKFM=F Big=F
 Integral buffers will be    131072 words long.
 Raffenetti 2 integral format.
 Two-electron integral symmetry is turned on.
 R6APFD:  NTU= -4 IXU= 1 FactS= 1.050
 Nuclear repulsion after empirical dispersion term =     1459.1609585678 Hartrees.
 One-electron integrals computed using PRISM.
 NBasis=   552 RedAO= T EigKep=  1.33D-06  NBF=   552
 NBsUse=   545 1.00D-06 EigRej=  8.64D-07 NBFU=   545
 ExpMin= 3.60D-02 ExpMax= 8.59D+03 ExpMxC= 1.30D+03 IAcc=3 IRadAn=         5 AccDes= 0.00D+00
 Harris functional with IExCor= 1009 and IRadAn=       5 diagonalized for initial guess.
 HarFok:  IExCor= 1009 AccDes= 0.00D+00 IRadAn=         5 IDoV= 1 UseB2=F ITyADJ=14
 ICtDFT=  3500011 ScaDFX=  1.000000  1.000000  1.000000  1.000000
 FoFCou: FMM=F IPFlag=           0 FMFlag=      100000 FMFlg1=           0
         NFxFlg=           0 DoJE=T BraDBF=F KetDBF=T FulRan=T
         wScrn=  0.000000 ICntrl=       500 IOpCl=  0 I1Cent=   200000004 NGrid=           0
         NMat0=    1 NMatS0=      1 NMatT0=    0 NMatD0=    1 NMtDS0=    0 NMtDT0=    0
 Petite list used in FoFCou.
 Requested convergence on RMS density matrix=1.00D-08 within  32 cycles.
 Requested convergence on MAX density matrix=1.00D-06.
 Requested convergence on             energy=1.00D-06.
 No special actions if energy rises.
 SCF Done:  E(RM08HX) =  -808.878701791     A.U. after   15 cycles
            NFock= 15  Conv=0.82D-08     -V/T= 2.0046
 QCSCF skips out because SCF is already converged.

 **********************************************************************

            Population analysis using the SCF Density.

 **********************************************************************

 Orbital symmetries:
       Occupied  (A) (A) (A) (A) (A) (A) (A) (A) (A) (A) (A) (A)
                 (A) (A) (A) (A) (A) (A) (A) (A) (A) (A) (A) (A)
                 (A) (A) (A) (A) (A) (A) (A) (A) (A) (A) (A) (A)
                 (A) (A) (A) (A) (A) (A) (A) (A) (A) (A) (A) (A)
                 (A) (A) (A) (A) (A) (A) (A) (A) (A) (A) (A) (A)
                 (A) (A) (A) (A) (A) (A) (A) (A) (A)
       Virtual   (A) (A) (A) (A) (A) (A) (A) (A) (A) (A) (A) (A)
                 (A) (A) (A) (A) (A) (A) (A) (A) (A) (A) (A) (A)
                 (A) (A) (A) (A) (A) (A) (A) (A) (A) (A) (A) (A)
                 (A) (A) (A) (A) (A) (A) (A) (A) (A) (A) (A) (A)
                 (A) (A) (A) (A) (A) (A) (A) (A) (A) (A) (A) (A)
                 (A) (A) (A) (A) (A) (A) (A) (A) (A) (A) (A) (A)
                 (A) (A) (A) (A) (A) (A) (A) (A) (A) (A) (A) (A)
                 (A) (A) (A) (A) (A) (A) (A) (A) (A) (A) (A) (A)
                 (A) (A) (A) (A) (A) (A) (A) (A) (A) (A) (A) (A)
                 (A) (A) (A) (A) (A) (A) (A) (A) (A) (A) (A) (A)
                 (A) (A) (A) (A) (A) (A) (A) (A) (A) (A) (A) (A)
                 (A) (A) (A) (A) (A) (A) (A) (A) (A) (A) (A) (A)
                 (A) (A) (A) (A) (A) (A) (A) (A) (A) (A) (A) (A)
                 (A) (A) (A) (A) (A) (A) (A) (A) (A) (A) (A) (A)
                 (A) (A) (A) (A) (A) (A) (A) (A) (A) (A) (A) (A)
                 (A) (A) (A) (A) (A) (A) (A) (A) (A) (A) (A) (A)
                 (A) (A) (A) (A) (A) (A) (A) (A) (A) (A) (A) (A)
                 (A) (A) (A) (A) (A) (A) (A) (A) (A) (A) (A) (A)
                 (A) (A) (A) (A) (A) (A) (A) (A) (A) (A) (A) (A)
                 (A) (A) (A) (A) (A) (A) (A) (A) (A) (A) (A) (A)
                 (A) (A) (A) (A) (A) (A) (A) (A) (A) (A) (A) (A)
                 (A) (A) (A) (A) (A) (A) (A) (A) (A) (A) (A) (A)
                 (A) (A) (A) (A) (A) (A) (A) (A) (A) (A) (A) (A)
                 (A) (A) (A) (A) (A) (A) (A) (A) (A) (A) (A) (A)
                 (A) (A) (A) (A) (A) (A) (A) (A) (A) (A) (A) (A)
                 (A) (A) (A) (A) (A) (A) (A) (A) (A) (A) (A) (A)
                 (A) (A) (A) (A) (A) (A) (A) (A) (A) (A) (A) (A)
                 (A) (A) (A) (A) (A) (A) (A) (A) (A) (A) (A) (A)
                 (A) (A) (A) (A) (A) (A) (A) (A) (A) (A) (A) (A)
                 (A) (A) (A) (A) (A) (A) (A) (A) (A) (A) (A) (A)
                 (A) (A) (A) (A) (A) (A) (A) (A) (A) (A) (A) (A)
                 (A) (A) (A) (A) (A) (A) (A) (A) (A) (A) (A) (A)
                 (A) (A) (A) (A) (A) (A) (A) (A) (A) (A) (A) (A)
                 (A) (A) (A) (A) (A) (A) (A) (A) (A) (A) (A) (A)
                 (A) (A) (A) (A) (A) (A) (A) (A) (A) (A) (A) (A)
                 (A) (A) (A) (A) (A) (A) (A) (A) (A) (A) (A) (A)
                 (A) (A) (A) (A) (A) (A) (A) (A) (A) (A) (A) (A)
                 (A) (A) (A) (A) (A) (A) (A) (A) (A) (A) (A) (A)
                 (A) (A) (A) (A) (A) (A) (A) (A) (A) (A) (A) (A)
                 (A) (A) (A) (A) (A) (A) (A) (A)
 The electronic state is 1-A.
 Alpha  occ. eigenvalues --  -19.60612 -10.60577 -10.55306 -10.54562 -10.54482
 Alpha  occ. eigenvalues --  -10.54385 -10.54314 -10.54221 -10.53898 -10.53795
 Alpha  occ. eigenvalues --  -10.53610 -10.53588 -10.53405 -10.53372 -10.53267
 Alpha  occ. eigenvalues --  -10.53141 -10.53111 -10.53063 -10.52987 -10.52674
 Alpha  occ. eigenvalues --   -1.14039  -0.98818  -0.97630  -0.97331  -0.89850
 Alpha  occ. eigenvalues --   -0.86186  -0.85734  -0.85441  -0.84996  -0.84764
 Alpha  occ. eigenvalues --   -0.76919  -0.70942  -0.70478  -0.70099  -0.68889
 Alpha  occ. eigenvalues --   -0.68262  -0.65503  -0.61850  -0.60727  -0.59111
 Alpha  occ. eigenvalues --   -0.56598  -0.54427  -0.54019  -0.52730  -0.52420
 Alpha  occ. eigenvalues --   -0.52103  -0.51556  -0.50113  -0.49967  -0.49670
 Alpha  occ. eigenvalues --   -0.49145  -0.48503  -0.45651  -0.44499  -0.44073
 Alpha  occ. eigenvalues --   -0.43858  -0.42198  -0.41785  -0.41482  -0.40696
 Alpha  occ. eigenvalues --   -0.40392  -0.39180  -0.35433  -0.32370  -0.32010
 Alpha  occ. eigenvalues --   -0.31284  -0.30979  -0.30610  -0.30077
 Alpha virt. eigenvalues --   -0.03120  -0.01975  -0.01853  -0.01644  -0.01149
 Alpha virt. eigenvalues --   -0.00769  -0.00646  -0.00184  -0.00029   0.00286
 Alpha virt. eigenvalues --    0.00751   0.00897   0.01123   0.01538   0.01761
 Alpha virt. eigenvalues --    0.02050   0.02369   0.02552   0.03202   0.03707
 Alpha virt. eigenvalues --    0.03822   0.04504   0.05212   0.05625   0.06218
 Alpha virt. eigenvalues --    0.06524   0.07255   0.07371   0.08236   0.08472
 Alpha virt. eigenvalues --    0.09275   0.09803   0.10196   0.10449   0.10543
 Alpha virt. eigenvalues --    0.10656   0.10867   0.11030   0.11117   0.11254
 Alpha virt. eigenvalues --    0.11495   0.11595   0.11806   0.11856   0.12280
 Alpha virt. eigenvalues --    0.12575   0.12810   0.12953   0.13004   0.13230
 Alpha virt. eigenvalues --    0.13393   0.13478   0.13920   0.13933   0.14766
 Alpha virt. eigenvalues --    0.15352   0.15521   0.15787   0.16497   0.16600
 Alpha virt. eigenvalues --    0.16701   0.17030   0.17517   0.17828   0.18038
 Alpha virt. eigenvalues --    0.18175   0.18448   0.18863   0.19127   0.19992
 Alpha virt. eigenvalues --    0.20267   0.20759   0.21281   0.21462   0.21850
 Alpha virt. eigenvalues --    0.22096   0.22692   0.22839   0.22984   0.23570
 Alpha virt. eigenvalues --    0.23781   0.23951   0.24367   0.24546   0.25123
 Alpha virt. eigenvalues --    0.25371   0.25811   0.26324   0.26567   0.27058
 Alpha virt. eigenvalues --    0.27614   0.28221   0.28870   0.29069   0.29496
 Alpha virt. eigenvalues --    0.29696   0.30110   0.30640   0.30672   0.31133
 Alpha virt. eigenvalues --    0.31306   0.31655   0.31953   0.32778   0.33081
 Alpha virt. eigenvalues --    0.33304   0.33766   0.33860   0.34379   0.34740
 Alpha virt. eigenvalues --    0.35090   0.36153   0.37170   0.37922   0.38345
 Alpha virt. eigenvalues --    0.38478   0.38803   0.39065   0.39555   0.40068
 Alpha virt. eigenvalues --    0.40420   0.40779   0.42504   0.42958   0.44094
 Alpha virt. eigenvalues --    0.44646   0.45322   0.45377   0.46465   0.49374
 Alpha virt. eigenvalues --    0.51786   0.52592   0.54382   0.55178   0.55914
 Alpha virt. eigenvalues --    0.56310   0.56483   0.57455   0.57859   0.58061
 Alpha virt. eigenvalues --    0.58184   0.58672   0.59579   0.59943   0.60979
 Alpha virt. eigenvalues --    0.61618   0.61793   0.62045   0.62681   0.62926
 Alpha virt. eigenvalues --    0.63082   0.64343   0.64543   0.64655   0.64940
 Alpha virt. eigenvalues --    0.66368   0.67223   0.67459   0.67780   0.68448
 Alpha virt. eigenvalues --    0.69289   0.69792   0.70363   0.71206   0.72180
 Alpha virt. eigenvalues --    0.73054   0.73478   0.73943   0.74336   0.74751
 Alpha virt. eigenvalues --    0.75630   0.75915   0.76280   0.77219   0.77513
 Alpha virt. eigenvalues --    0.77740   0.78186   0.78544   0.79052   0.79489
 Alpha virt. eigenvalues --    0.79757   0.80518   0.80810   0.81188   0.81923
 Alpha virt. eigenvalues --    0.83129   0.83992   0.84411   0.85765   0.86311
 Alpha virt. eigenvalues --    0.86948   0.87660   0.87893   0.88450   0.88661
 Alpha virt. eigenvalues --    0.88894   0.89284   0.90180   0.90420   0.90922
 Alpha virt. eigenvalues --    0.91947   0.92341   0.93196   0.94247   0.95141
 Alpha virt. eigenvalues --    0.95418   0.96249   0.96699   0.97720   0.98362
 Alpha virt. eigenvalues --    0.99625   1.00014   1.00964   1.02205   1.03293
 Alpha virt. eigenvalues --    1.05246   1.06493   1.07204   1.07486   1.07776
 Alpha virt. eigenvalues --    1.09524   1.09996   1.10443   1.11456   1.12492
 Alpha virt. eigenvalues --    1.12730   1.13369   1.14446   1.15230   1.15383
 Alpha virt. eigenvalues --    1.17503   1.18553   1.19596   1.20858   1.21530
 Alpha virt. eigenvalues --    1.22632   1.24592   1.25214   1.27160   1.29111
 Alpha virt. eigenvalues --    1.30197   1.31736   1.32532   1.34994   1.36144
 Alpha virt. eigenvalues --    1.38603   1.42394   1.43383   1.44577   1.48894
 Alpha virt. eigenvalues --    1.49966   1.52000   1.53751   1.54484   1.55333
 Alpha virt. eigenvalues --    1.55920   1.56443   1.57168   1.57683   1.58663
 Alpha virt. eigenvalues --    1.58816   1.59343   1.59963   1.60783   1.61000
 Alpha virt. eigenvalues --    1.61665   1.62661   1.63442   1.64096   1.64912
 Alpha virt. eigenvalues --    1.65843   1.66850   1.67032   1.67794   1.69252
 Alpha virt. eigenvalues --    1.69603   1.70029   1.70304   1.71420   1.73811
 Alpha virt. eigenvalues --    1.74573   1.75575   1.76440   1.77279   1.77698
 Alpha virt. eigenvalues --    1.79358   1.79833   1.80623   1.81920   1.82499
 Alpha virt. eigenvalues --    1.82688   1.84399   1.84972   1.86506   1.86745
 Alpha virt. eigenvalues --    1.87366   1.88381   1.90201   1.91458   1.93134
 Alpha virt. eigenvalues --    1.94269   1.95480   1.97132   1.97545   1.98202
 Alpha virt. eigenvalues --    1.98616   1.99323   1.99910   2.00334   2.00443
 Alpha virt. eigenvalues --    2.00898   2.01641   2.01941   2.02642   2.03643
 Alpha virt. eigenvalues --    2.03994   2.05034   2.06216   2.06352   2.07332
 Alpha virt. eigenvalues --    2.08907   2.10904   2.11411   2.13006   2.13810
 Alpha virt. eigenvalues --    2.14435   2.14807   2.16025   2.18478   2.19075
 Alpha virt. eigenvalues --    2.20578   2.20874   2.23740   2.26403   2.29474
 Alpha virt. eigenvalues --    2.30073   2.35585   2.37769   2.39383   2.40743
 Alpha virt. eigenvalues --    2.42266   2.43455   2.44227   2.45741   2.46768
 Alpha virt. eigenvalues --    2.47344   2.47615   2.48467   2.49527   2.50103
 Alpha virt. eigenvalues --    2.50216   2.51244   2.52123   2.52967   2.61790
 Alpha virt. eigenvalues --    2.63863   2.64923   2.66232   2.67153   2.67997
 Alpha virt. eigenvalues --    2.68591   2.69102   2.70264   2.70691   2.70770
 Alpha virt. eigenvalues --    2.71428   2.71702   2.72002   2.72611   2.72883
 Alpha virt. eigenvalues --    2.74535   2.75408   2.77165   2.78288   2.79937
 Alpha virt. eigenvalues --    2.80818   2.81384   2.81667   2.84036   2.85543
 Alpha virt. eigenvalues --    2.87367   2.88653   2.89528   2.90567   2.90898
 Alpha virt. eigenvalues --    2.91414   2.92054   2.92823   2.93516   2.94310
 Alpha virt. eigenvalues --    2.95244   2.95864   2.97019   2.97920   2.98158
 Alpha virt. eigenvalues --    2.98499   2.99619   3.02651   3.05088   3.06313
 Alpha virt. eigenvalues --    3.08448   3.12049   3.12827   3.17193   3.17741
 Alpha virt. eigenvalues --    3.20599   3.21746   3.22440   3.26460   3.27475
 Alpha virt. eigenvalues --    3.31724   3.32879   3.34587   3.35625   3.41497
 Alpha virt. eigenvalues --    3.45728   3.46798   3.47277   3.49232   3.50916
 Alpha virt. eigenvalues --    3.52842   3.56442   3.57898   3.59532   3.61074
 Alpha virt. eigenvalues --    3.62096   3.64338   3.64986   3.66450   3.69596
 Alpha virt. eigenvalues --    3.72482   3.80895   3.82555   3.90280   3.98967
 Alpha virt. eigenvalues --    4.04264   4.05564   4.06722   4.08398   4.09008
 Alpha virt. eigenvalues --    4.09293   4.20906   4.21762   4.23255   4.24346
 Alpha virt. eigenvalues --    4.25372   4.25938   4.26618   4.41218   4.52477
 Alpha virt. eigenvalues --    4.92957   4.94101   4.94424   5.35145   5.56255
 Alpha virt. eigenvalues --    5.77147  23.68194  23.74080  23.76685  23.89174
 Alpha virt. eigenvalues --   24.03896  24.04203  24.05377  24.06137  24.07472
 Alpha virt. eigenvalues --   24.08427  24.14237  24.15118  24.18938  24.19429
 Alpha virt. eigenvalues --   24.19795  24.20682  24.24494  24.33125  24.34795
 Alpha virt. eigenvalues --   50.02397
          Condensed to atoms (all electrons):
               1          2          3          4          5          6
     1  O    7.855509   0.727300  -0.171609  -0.430929  -0.161793  -0.015967
     2  C    0.727300  22.079534   4.980907  -4.117112  -0.699974  -1.145261
     3  C   -0.171609   4.980907  19.209270  -3.985207  -1.296879  -0.353493
     4  C   -0.430929  -4.117112  -3.985207  26.709518  -8.820861   0.413793
     5  C   -0.161793  -0.699974  -1.296879  -8.820861  21.824763  -0.810146
     6  C   -0.015967  -1.145261  -0.353493   0.413793  -0.810146  11.798148
     7  C   -0.061069  -5.293359  -2.057128   3.311112  -1.140903   0.678992
     8  C   -0.008442  -4.517159  -1.617531  -4.740136   5.829074  -0.771117
     9  C    0.020367  -1.424720  -0.294860  -0.029903  -0.615251  -1.020721
    10  C    0.086698  -0.267058   0.055750  -1.921162   0.537051   0.025639
    11  C   -0.009024   1.080181   1.009633   0.689221  -2.671617  -0.179752
    12  C    0.070474  -2.497799  -2.904231   0.461633  -1.229772  -2.235316
    13  C   -0.000323   1.813886   0.390868  -4.647773   0.888543   0.088680
    14  C   -0.033777   2.114615  -0.369675   3.367124  -5.013226   0.298655
    15  C   -0.010567  -2.128597  -6.180671   0.446890  -0.085018   1.112164
    16  C    0.060277  -1.494449  -0.653899  -2.339047  -0.213742   0.101559
    17  C    0.099084  -0.119341  -0.397773   0.721096  -2.618367  -0.043699
    18  C    0.010601  -0.192113   0.430632   0.083989   0.074098  -2.021648
    19  C   -0.012463  -1.101146  -0.113945   1.557773  -0.278824   0.069921
    20  C   -0.004201  -1.585275   0.034961  -1.205129   2.516655  -0.137801
    21  H   -0.000458  -0.067391  -0.059739   0.076022  -0.003593   0.435029
    22  H   -0.002068  -0.259980  -0.197626   0.282172  -0.077255  -0.001311
    23  H    0.001608   0.079406   0.115020  -0.460906   0.298510  -0.040856
    24  H   -0.002019   0.080504   0.115094   0.069799  -0.078471   0.009029
    25  H   -0.004461   0.058131   0.064903  -0.045788  -0.061559  -0.002301
    26  H    0.018592   0.075768  -0.041537   0.053220  -0.009026  -0.031386
    27  H    0.198796   0.027574   0.071975  -0.021140  -0.047119   0.032570
    28  H    0.000424  -0.010600  -0.004112  -0.034761  -0.008431  -0.042589
    29  H   -0.000064   0.031605  -0.001145  -0.030269   0.007176   0.000974
    30  H   -0.000466   0.022585  -0.019260   0.054091  -0.071227   0.005524
    31  H   -0.000220  -0.013646  -0.034648  -0.009549  -0.008406   0.033954
    32  H    0.000333  -0.009087  -0.014566  -0.008266  -0.007030  -0.001110
    33  H    0.001131   0.003588  -0.011456   0.015891  -0.054958   0.003212
    34  H   -0.000115   0.010410   0.057035   0.002356  -0.005990  -0.008619
    35  H   -0.000349  -0.028782  -0.007258   0.070423  -0.005062   0.001419
    36  H   -0.000431  -0.040449  -0.001436  -0.030016   0.084259  -0.000919
               7          8          9         10         11         12
     1  O   -0.061069  -0.008442   0.020367   0.086698  -0.009024   0.070474
     2  C   -5.293359  -4.517159  -1.424720  -0.267058   1.080181  -2.497799
     3  C   -2.057128  -1.617531  -0.294860   0.055750   1.009633  -2.904231
     4  C    3.311112  -4.740136  -0.029903  -1.921162   0.689221   0.461633
     5  C   -1.140903   5.829074  -0.615251   0.537051  -2.671617  -1.229772
     6  C    0.678992  -0.771117  -1.020721   0.025639  -0.179752  -2.235316
     7  C   14.233705  -0.598972   0.634387  -0.866322  -0.494671   0.617599
     8  C   -0.598972  21.696249   0.151237   0.674889  -2.657630  -0.603907
     9  C    0.634387   0.151237  12.777037  -0.654180  -0.366880   1.217225
    10  C   -0.866322   0.674889  -0.654180   8.984834   0.337988   0.083431
    11  C   -0.494671  -2.657630  -0.366880   0.337988   9.404251  -0.015056
    12  C    0.617599  -0.603907   1.217225   0.083431  -0.015056  14.352978
    13  C   -4.415687   0.435149   0.132090   0.772305  -0.134893   0.072140
    14  C    0.432810 -10.639937   0.001291  -0.573807   2.503113   0.056657
    15  C    0.421405   0.639263  -2.136820  -0.200786  -0.527096  -1.524206
    16  C    0.871984   0.154245  -0.376317   0.131124   0.282481   0.065650
    17  C    0.068242  -0.598582   0.216657   0.200914  -0.294030   0.007033
    18  C   -0.003014   0.107886  -2.248410  -0.003162   0.000535   0.382958
    19  C   -0.072676  -0.224402   0.122314  -1.708136   0.010510   0.035783
    20  C   -0.185816   2.695249  -0.128224   0.159808  -2.196400  -0.058503
    21  H    0.023835   0.011765   0.046619  -0.018594  -0.017641  -0.191721
    22  H    0.727432  -0.021385  -0.065770   0.014433  -0.011280   0.002454
    23  H   -0.254435   0.998036  -0.020989   0.037235  -0.052884  -0.034397
    24  H    0.006796  -0.145004   0.457623  -0.021203   0.002188   0.048798
    25  H   -0.001535  -0.048230  -0.001961   0.385926   0.008341   0.001503
    26  H    0.001849   0.011017  -0.024727  -0.005806   0.420651  -0.033148
    27  H   -0.022316  -0.003349  -0.040417  -0.049097   0.037623   0.087275
    28  H   -0.006919  -0.005477   0.072255  -0.000145  -0.000206   0.445799
    29  H   -0.126509   0.006712  -0.003984   0.032770   0.001052   0.002682
    30  H    0.019158  -0.244343   0.007000  -0.006442   0.054795   0.001413
    31  H    0.003011  -0.002918  -0.059181   0.001189  -0.003801   0.036992
    32  H    0.049083   0.000050  -0.002340  -0.039614   0.001650  -0.000525
    33  H    0.003071   0.014267   0.003717   0.001476  -0.065995   0.001854
    34  H   -0.000456  -0.002226  -0.047343  -0.000667   0.000098  -0.114916
    35  H   -0.004750  -0.007068   0.001895  -0.011230  -0.000101   0.001044
    36  H   -0.003605   0.093006  -0.003091   0.002356  -0.022134  -0.000758
              13         14         15         16         17         18
     1  O   -0.000323  -0.033777  -0.010567   0.060277   0.099084   0.010601
     2  C    1.813886   2.114615  -2.128597  -1.494449  -0.119341  -0.192113
     3  C    0.390868  -0.369675  -6.180671  -0.653899  -0.397773   0.430632
     4  C   -4.647773   3.367124   0.446890  -2.339047   0.721096   0.083989
     5  C    0.888543  -5.013226  -0.085018  -0.213742  -2.618367   0.074098
     6  C    0.088680   0.298655   1.112164   0.101559  -0.043699  -2.021648
     7  C   -4.415687   0.432810   0.421405   0.871984   0.068242  -0.003014
     8  C    0.435149 -10.639937   0.639263   0.154245  -0.598582   0.107886
     9  C    0.132090   0.001291  -2.136820  -0.376317   0.216657  -2.248410
    10  C    0.772305  -0.573807  -0.200786   0.131124   0.200914  -0.003162
    11  C   -0.134893   2.503113  -0.527096   0.282481  -0.294030   0.000535
    12  C    0.072140   0.056657  -1.524206   0.065650   0.007033   0.382958
    13  C   12.566354  -0.807678  -0.041944  -0.756961  -0.014428  -0.058193
    14  C   -0.807678  17.611048  -0.109071  -0.074659   0.255796  -0.002492
    15  C   -0.041944  -0.109071  14.842134  -0.079274   0.070777   1.166716
    16  C   -0.756961  -0.074659  -0.079274  10.309051   0.096577  -0.006713
    17  C   -0.014428   0.255796   0.070777   0.096577   9.465933   0.003659
    18  C   -0.058193  -0.002492   1.166716  -0.006713   0.003659   8.606125
    19  C   -0.548331   0.097954   0.062821   0.207352   0.026906  -0.008270
    20  C    0.054433  -2.948177   0.012633   0.034349  -0.891248   0.004104
    21  H   -0.027702   0.007366   0.124553  -0.029590  -0.002225  -0.024724
    22  H   -0.340192   0.104750   0.049857   0.087235   0.002400   0.029848
    23  H    0.102077  -0.546602   0.008385  -0.000776  -0.035623   0.014910
    24  H   -0.004523   0.001048  -0.210175  -0.007995   0.009168  -0.046512
    25  H    0.054226   0.001495   0.000178  -0.106831   0.000466  -0.000688
    26  H   -0.004614   0.092169   0.014788  -0.008651  -0.188958   0.003387
    27  H    0.009054  -0.017667  -0.051181  -0.015395   0.037337   0.021059
    28  H    0.016517  -0.002250  -0.015247  -0.000431  -0.000023  -0.113340
    29  H    0.446878  -0.007935  -0.003774   0.025727   0.000213   0.000349
    30  H   -0.010237   0.574118   0.004668  -0.002609   0.062873   0.000236
    31  H    0.000790   0.003263   0.409017  -0.000063  -0.002064  -0.066014
    32  H   -0.009247   0.000864  -0.000852   0.425524   0.000992  -0.000203
    33  H   -0.000297   0.029251   0.001103   0.000481   0.448243   0.000505
    34  H   -0.000727   0.000324  -0.044539  -0.000624   0.000053   0.480040
    35  H   -0.084882   0.001733   0.000935  -0.087983   0.000592  -0.000153
    36  H    0.001305  -0.175217   0.000904   0.000351  -0.127759   0.000290
              19         20         21         22         23         24
     1  O   -0.012463  -0.004201  -0.000458  -0.002068   0.001608  -0.002019
     2  C   -1.101146  -1.585275  -0.067391  -0.259980   0.079406   0.080504
     3  C   -0.113945   0.034961  -0.059739  -0.197626   0.115020   0.115094
     4  C    1.557773  -1.205129   0.076022   0.282172  -0.460906   0.069799
     5  C   -0.278824   2.516655  -0.003593  -0.077255   0.298510  -0.078471
     6  C    0.069921  -0.137801   0.435029  -0.001311  -0.040856   0.009029
     7  C   -0.072676  -0.185816   0.023835   0.727432  -0.254435   0.006796
     8  C   -0.224402   2.695249   0.011765  -0.021385   0.998036  -0.145004
     9  C    0.122314  -0.128224   0.046619  -0.065770  -0.020989   0.457623
    10  C   -1.708136   0.159808  -0.018594   0.014433   0.037235  -0.021203
    11  C    0.010510  -2.196400  -0.017641  -0.011280  -0.052884   0.002188
    12  C    0.035783  -0.058503  -0.191721   0.002454  -0.034397   0.048798
    13  C   -0.548331   0.054433  -0.027702  -0.340192   0.102077  -0.004523
    14  C    0.097954  -2.948177   0.007366   0.104750  -0.546602   0.001048
    15  C    0.062821   0.012633   0.124553   0.049857   0.008385  -0.210175
    16  C    0.207352   0.034349  -0.029590   0.087235  -0.000776  -0.007995
    17  C    0.026906  -0.891248  -0.002225   0.002400  -0.035623   0.009168
    18  C   -0.008270   0.004104  -0.024724   0.029848   0.014910  -0.046512
    19  C    8.262743  -0.033844   0.022367  -0.018186  -0.012053   0.001646
    20  C   -0.033844   9.990071  -0.000442  -0.007655   0.126707   0.020059
    21  H    0.022367  -0.000442   0.400735   0.008033  -0.000330  -0.001482
    22  H   -0.018186  -0.007655   0.008033   0.460981  -0.026798  -0.003183
    23  H   -0.012053   0.126707  -0.000330  -0.026798   0.496629  -0.007098
    24  H    0.001646   0.020059  -0.001482  -0.003183  -0.007098   0.467134
    25  H   -0.013118   0.004816  -0.000286  -0.000348  -0.004288   0.000951
    26  H   -0.002719  -0.018373   0.002941   0.002362  -0.002246  -0.001415
    27  H   -0.001941   0.007858  -0.008687  -0.004421   0.001573   0.001528
    28  H    0.000307   0.000088  -0.008455  -0.003710   0.000008   0.000686
    29  H   -0.101533   0.000366  -0.001126  -0.008232  -0.000108   0.000072
    30  H    0.003554  -0.171974   0.000064   0.002642  -0.019453  -0.002810
    31  H    0.000397  -0.001910   0.001259  -0.002669  -0.000182  -0.009519
    32  H   -0.089104  -0.000835  -0.001335   0.001805  -0.001338   0.000100
    33  H    0.000509  -0.108851  -0.000083   0.000069  -0.000479  -0.001621
    34  H    0.000265  -0.000309   0.000315  -0.000858   0.000229   0.002688
    35  H    0.489155  -0.000799   0.000036   0.001185  -0.001538   0.000076
    36  H   -0.000369   0.542708   0.000027  -0.000219   0.006435  -0.002276
              25         26         27         28         29         30
     1  O   -0.004461   0.018592   0.198796   0.000424  -0.000064  -0.000466
     2  C    0.058131   0.075768   0.027574  -0.010600   0.031605   0.022585
     3  C    0.064903  -0.041537   0.071975  -0.004112  -0.001145  -0.019260
     4  C   -0.045788   0.053220  -0.021140  -0.034761  -0.030269   0.054091
     5  C   -0.061559  -0.009026  -0.047119  -0.008431   0.007176  -0.071227
     6  C   -0.002301  -0.031386   0.032570  -0.042589   0.000974   0.005524
     7  C   -0.001535   0.001849  -0.022316  -0.006919  -0.126509   0.019158
     8  C   -0.048230   0.011017  -0.003349  -0.005477   0.006712  -0.244343
     9  C   -0.001961  -0.024727  -0.040417   0.072255  -0.003984   0.007000
    10  C    0.385926  -0.005806  -0.049097  -0.000145   0.032770  -0.006442
    11  C    0.008341   0.420651   0.037623  -0.000206   0.001052   0.054795
    12  C    0.001503  -0.033148   0.087275   0.445799   0.002682   0.001413
    13  C    0.054226  -0.004614   0.009054   0.016517   0.446878  -0.010237
    14  C    0.001495   0.092169  -0.017667  -0.002250  -0.007935   0.574118
    15  C    0.000178   0.014788  -0.051181  -0.015247  -0.003774   0.004668
    16  C   -0.106831  -0.008651  -0.015395  -0.000431   0.025727  -0.002609
    17  C    0.000466  -0.188958   0.037337  -0.000023   0.000213   0.062873
    18  C   -0.000688   0.003387   0.021059  -0.113340   0.000349   0.000236
    19  C   -0.013118  -0.002719  -0.001941   0.000307  -0.101533   0.003554
    20  C    0.004816  -0.018373   0.007858   0.000088   0.000366  -0.171974
    21  H   -0.000286   0.002941  -0.008687  -0.008455  -0.001126   0.000064
    22  H   -0.000348   0.002362  -0.004421  -0.003710  -0.008232   0.002642
    23  H   -0.004288  -0.002246   0.001573   0.000008  -0.000108  -0.019453
    24  H    0.000951  -0.001415   0.001528   0.000686   0.000072  -0.002810
    25  H    0.392985  -0.001505  -0.001103   0.000152   0.000891  -0.000198
    26  H   -0.001505   0.433941  -0.012426  -0.000729  -0.000064   0.001263
    27  H   -0.001103  -0.012426   0.461062   0.000313   0.000322  -0.000076
    28  H    0.000152  -0.000729   0.000313   0.414130   0.000029  -0.000027
    29  H    0.000891  -0.000064   0.000322   0.000029   0.416154  -0.000049
    30  H   -0.000198   0.001263  -0.000076  -0.000027  -0.000049   0.418914
    31  H    0.000015  -0.000541  -0.000072   0.003116   0.000057   0.000210
    32  H   -0.006294   0.000296  -0.000379   0.000020   0.002395  -0.000004
    33  H   -0.000659  -0.009502   0.000705  -0.000006   0.000007   0.003705
    34  H   -0.000004  -0.000013   0.000446  -0.011793  -0.000012  -0.000022
    35  H    0.000329  -0.000104   0.000043   0.000007  -0.011530   0.000164
    36  H   -0.000307   0.000816   0.000052  -0.000003  -0.000016  -0.014057
              31         32         33         34         35         36
     1  O   -0.000220   0.000333   0.001131  -0.000115  -0.000349  -0.000431
     2  C   -0.013646  -0.009087   0.003588   0.010410  -0.028782  -0.040449
     3  C   -0.034648  -0.014566  -0.011456   0.057035  -0.007258  -0.001436
     4  C   -0.009549  -0.008266   0.015891   0.002356   0.070423  -0.030016
     5  C   -0.008406  -0.007030  -0.054958  -0.005990  -0.005062   0.084259
     6  C    0.033954  -0.001110   0.003212  -0.008619   0.001419  -0.000919
     7  C    0.003011   0.049083   0.003071  -0.000456  -0.004750  -0.003605
     8  C   -0.002918   0.000050   0.014267  -0.002226  -0.007068   0.093006
     9  C   -0.059181  -0.002340   0.003717  -0.047343   0.001895  -0.003091
    10  C    0.001189  -0.039614   0.001476  -0.000667  -0.011230   0.002356
    11  C   -0.003801   0.001650  -0.065995   0.000098  -0.000101  -0.022134
    12  C    0.036992  -0.000525   0.001854  -0.114916   0.001044  -0.000758
    13  C    0.000790  -0.009247  -0.000297  -0.000727  -0.084882   0.001305
    14  C    0.003263   0.000864   0.029251   0.000324   0.001733  -0.175217
    15  C    0.409017  -0.000852   0.001103  -0.044539   0.000935   0.000904
    16  C   -0.000063   0.425524   0.000481  -0.000624  -0.087983   0.000351
    17  C   -0.002064   0.000992   0.448243   0.000053   0.000592  -0.127759
    18  C   -0.066014  -0.000203   0.000505   0.480040  -0.000153   0.000290
    19  C    0.000397  -0.089104   0.000509   0.000265   0.489155  -0.000369
    20  C   -0.001910  -0.000835  -0.108851  -0.000309  -0.000799   0.542708
    21  H    0.001259  -0.001335  -0.000083   0.000315   0.000036   0.000027
    22  H   -0.002669   0.001805   0.000069  -0.000858   0.001185  -0.000219
    23  H   -0.000182  -0.001338  -0.000479   0.000229  -0.001538   0.006435
    24  H   -0.009519   0.000100  -0.001621   0.002688   0.000076  -0.002276
    25  H    0.000015  -0.006294  -0.000659  -0.000004   0.000329  -0.000307
    26  H   -0.000541   0.000296  -0.009502  -0.000013  -0.000104   0.000816
    27  H   -0.000072  -0.000379   0.000705   0.000446   0.000043   0.000052
    28  H    0.003116   0.000020  -0.000006  -0.011793   0.000007  -0.000003
    29  H    0.000057   0.002395   0.000007  -0.000012  -0.011530  -0.000016
    30  H    0.000210  -0.000004   0.003705  -0.000022   0.000164  -0.014057
    31  H    0.405641  -0.000010   0.000029  -0.011577  -0.000004   0.000059
    32  H   -0.000010   0.418451   0.000027  -0.000010  -0.011463  -0.000043
    33  H    0.000029   0.000027   0.417378   0.000001   0.000008  -0.012765
    34  H   -0.011577  -0.000010   0.000001   0.432653  -0.000005  -0.000011
    35  H   -0.000004  -0.011463   0.000008  -0.000005   0.430297  -0.000017
    36  H    0.000059  -0.000043  -0.012765  -0.000011  -0.000017   0.432132
 Mulliken charges:
               1
     1  O   -0.220381
     2  C   -0.172695
     3  C    0.253638
     4  C    0.491832
     5  C    0.034375
     6  C   -0.245251
     7  C   -0.494328
     8  C   -0.060281
     9  C   -0.295625
    10  C   -0.178405
    11  C   -0.123219
    12  C   -0.609121
    13  C    0.063335
    14  C   -0.233276
    15  C   -0.039374
    16  C   -0.597962
    17  C   -0.460893
    18  C   -0.626277
    19  C   -0.631215
    20  C   -0.519101
    21  H    0.304637
    22  H    0.275489
    23  H    0.236613
    24  H    0.250321
    25  H    0.326156
    26  H    0.264431
    27  H    0.299620
    28  H    0.315400
    29  H    0.319915
    30  H    0.326278
    31  H    0.327994
    32  H    0.302066
    33  H    0.316444
    34  H    0.263925
    35  H    0.263738
    36  H    0.271196
 Sum of Mulliken charges =  -0.00000
 Mulliken charges with hydrogens summed into heavy atoms:
               1
     1  O    0.079239
     2  C   -0.172695
     3  C    0.253638
     4  C    0.491832
     5  C    0.034375
     6  C    0.059386
     7  C   -0.218838
     8  C    0.176332
     9  C   -0.045304
    10  C    0.147752
    11  C    0.141211
    12  C   -0.293720
    13  C    0.383251
    14  C    0.093002
    15  C    0.288620
    16  C   -0.295896
    17  C   -0.144449
    18  C   -0.362352
    19  C   -0.367477
    20  C   -0.247904
 Electronic spatial extent (au):  <R**2>=           5054.1055
 Charge=             -0.0000 electrons
 Dipole moment (field-independent basis, Debye):
    X=             -1.1093    Y=             -1.0637    Z=             -0.7782  Tot=              1.7226
 Quadrupole moment (field-independent basis, Debye-Ang):
   XX=           -110.4805   YY=           -111.8295   ZZ=           -114.3167
   XY=              0.0535   XZ=             -0.8268   YZ=             -1.4412
 Traceless Quadrupole moment (field-independent basis, Debye-Ang):
   XX=              1.7284   YY=              0.3794   ZZ=             -2.1078
   XY=              0.0535   XZ=             -0.8268   YZ=             -1.4412
 Octapole moment (field-independent basis, Debye-Ang**2):
  XXX=            -26.6785  YYY=             21.7930  ZZZ=              7.4224  XYY=             11.7513
  XXY=            -27.1356  XXZ=              0.8580  XZZ=              2.2766  YZZ=             -5.8133
  YYZ=             -2.5678  XYZ=             -0.7031
 Hexadecapole moment (field-independent basis, Debye-Ang**3):
 XXXX=          -3014.7685 YYYY=          -2965.1503 ZZZZ=           -802.9981 XXXY=            -26.2286
 XXXZ=            -46.7509 YYYX=             41.1624 YYYZ=            -11.1123 ZZZX=            -17.3223
 ZZZY=            -29.4807 XXYY=           -998.8597 XXZZ=           -651.2391 YYZZ=           -622.5216
 XXYZ=             40.8653 YYXZ=             79.9413 ZZXY=            -11.5009
 N-N= 1.459160958568D+03 E-N=-4.796829255160D+03  KE= 8.051422046001D+02
 R6APFD:  NTU= -4 IXU= 1 FactS= 1.050
 Calling FoFJK, ICntrl=      2127 FMM=F ISym2X=0 I1Cent= 0 IOpClX= 0 NMat=1 NMatS=1 NMatT=0.
 ***** Axes restored to original set *****
 -------------------------------------------------------------------
 Center     Atomic                   Forces (Hartrees/Bohr)
 Number     Number              X              Y              Z
 -------------------------------------------------------------------
      1        8          -0.013354421    0.005833817   -0.002237077
      2        6           0.028679767   -0.015015146   -0.033472172
      3        6           0.002618152    0.009422176    0.014692831
      4        6          -0.017300319    0.072522487   -0.013490368
      5        6          -0.060843620   -0.043628656   -0.014423734
      6        6          -0.009557873    0.002526956    0.001363393
      7        6          -0.002439814   -0.031539829    0.023377409
      8        6           0.028860788    0.014948093    0.025253410
      9        6          -0.012683376    0.003998963    0.003792681
     10        6           0.019132808   -0.034603378   -0.003961950
     11        6           0.025268310    0.030151305   -0.004177777
     12        6           0.005062488    0.001658338    0.000576019
     13        6           0.001957003   -0.003897810    0.001191944
     14        6           0.001399662    0.002397277    0.000867358
     15        6          -0.004984611   -0.005025653   -0.003971201
     16        6          -0.000357588    0.000446019    0.001470525
     17        6           0.001050970    0.000924932    0.002338697
     18        6           0.002535122    0.000939598    0.001167647
     19        6          -0.001758938    0.001851449    0.000311410
     20        6          -0.001099854   -0.001353636   -0.000783328
     21        1           0.004617898   -0.002421237   -0.000001645
     22        1          -0.002530392    0.006977129   -0.003393578
     23        1          -0.005342744   -0.005930006   -0.002955395
     24        1           0.007294795   -0.003687119   -0.002848378
     25        1          -0.003564805    0.006415430   -0.000784663
     26        1          -0.003085832   -0.005476838   -0.000231448
     27        1           0.008879461   -0.006978650    0.007536825
     28        1          -0.001259703   -0.001034482   -0.000794515
     29        1          -0.000918595   -0.001352983    0.001610588
     30        1           0.001437283   -0.000069303    0.001690686
     31        1           0.000167806    0.001433980    0.000930417
     32        1           0.001111457   -0.001524464   -0.000971384
     33        1           0.001189763    0.001535814   -0.001023715
     34        1          -0.001856825    0.000624312    0.000451251
     35        1          -0.000026780   -0.001848091    0.000481589
     36        1           0.001702558    0.000779208    0.000417649
 -------------------------------------------------------------------
 Cartesian Forces:  Max     0.072522487 RMS     0.014154221

 GradGradGradGradGradGradGradGradGradGradGradGradGradGradGradGradGradGrad
 Berny optimization.
 FormGI is forming the generalized inverse of G from B-inverse, IUseBI=4.
 Internal  Forces:  Max     0.030930221 RMS     0.006321595
 Search for a local minimum.
 Step number   1 out of a maximum of  202
 All quantities printed in internal units (Hartrees-Bohrs-Radians)
 Mixed Optimization -- RFO/linear search
 Second derivative matrix not updated -- first step.
 ITU=  0
     Eigenvalues ---    0.00230   0.00230   0.00845   0.00879   0.01646
     Eigenvalues ---    0.01729   0.01735   0.02155   0.02155   0.02155
     Eigenvalues ---    0.02156   0.02156   0.02156   0.02156   0.02157
     Eigenvalues ---    0.02157   0.02157   0.02157   0.02157   0.02158
     Eigenvalues ---    0.02158   0.02158   0.02158   0.02251   0.02252
     Eigenvalues ---    0.02388   0.02392   0.02430   0.02434   0.02580
     Eigenvalues ---    0.02587   0.04898   0.08035   0.09120   0.15992
     Eigenvalues ---    0.15993   0.15995   0.15996   0.16000   0.16000
     Eigenvalues ---    0.16000   0.16000   0.16000   0.16000   0.16000
     Eigenvalues ---    0.16000   0.16000   0.16000   0.16000   0.16000
     Eigenvalues ---    0.18020   0.18231   0.22000   0.22000   0.22000
     Eigenvalues ---    0.22000   0.22000   0.22000   0.23486   0.23541
     Eigenvalues ---    0.23542   0.25000   0.25000   0.25000   0.26281
     Eigenvalues ---    0.26377   0.33292   0.35157   0.35250   0.35252
     Eigenvalues ---    0.35254   0.35256   0.35259   0.35266   0.35270
     Eigenvalues ---    0.35272   0.35274   0.35489   0.35514   0.35568
     Eigenvalues ---    0.35572   0.35735   0.36462   0.42132   0.42321
     Eigenvalues ---    0.42548   0.42554   0.43448   0.43450   0.46459
     Eigenvalues ---    0.46466   0.46475   0.46480   0.46480   0.46487
     Eigenvalues ---    0.46492   0.46496   0.51096   0.51186   0.52575
     Eigenvalues ---    0.52684   0.52974
 RFO step:  Lambda=-2.54973409D-02 EMin= 2.30000000D-03
 Linear search not attempted -- first point.
 Iteration  1 RMS(Cart)=  0.07608840 RMS(Int)=  0.00192253
 Iteration  2 RMS(Cart)=  0.00503144 RMS(Int)=  0.00056222
 Iteration  3 RMS(Cart)=  0.00000840 RMS(Int)=  0.00056221
 Iteration  4 RMS(Cart)=  0.00000001 RMS(Int)=  0.00056221
 Variable       Old X    -DE/DX   Delta X   Delta X   Delta X     New X
                                 (Linear)    (Quad)   (Total)
    R1        2.76666  -0.00539   0.00000  -0.01381  -0.01381   2.75285
    R2        1.83678  -0.01333   0.00000  -0.02400  -0.02400   1.81278
    R3        2.81842   0.01419   0.00000   0.03960   0.03960   2.85802
    R4        2.95831  -0.01211   0.00000  -0.04186  -0.04186   2.91645
    R5        2.96057  -0.00872   0.00000  -0.03024  -0.03024   2.93033
    R6        2.63584   0.00130   0.00000   0.00267   0.00267   2.63851
    R7        2.63610  -0.00073   0.00000  -0.00134  -0.00134   2.63476
    R8        2.56899   0.02988   0.00000   0.05625   0.05653   2.62552
    R9        2.56893   0.02823   0.00000   0.05319   0.05347   2.62240
   R10        2.56789   0.03093   0.00000   0.05808   0.05840   2.62629
   R11        2.56794   0.02919   0.00000   0.05495   0.05528   2.62322
   R12        2.63583  -0.00251   0.00000  -0.00526  -0.00526   2.63058
   R13        2.05420   0.00208   0.00000   0.00553   0.00553   2.05973
   R14        2.63576   0.00465   0.00000   0.00959   0.00958   2.64534
   R15        2.04757   0.00357   0.00000   0.00935   0.00935   2.05692
   R16        2.63582   0.00373   0.00000   0.00763   0.00763   2.64344
   R17        2.04498   0.00394   0.00000   0.01030   0.01030   2.05528
   R18        2.63605   0.00187   0.00000   0.00396   0.00396   2.64001
   R19        2.04849   0.00306   0.00000   0.00803   0.00803   2.05651
   R20        2.63607   0.00250   0.00000   0.00499   0.00499   2.64106
   R21        2.04889   0.00107   0.00000   0.00283   0.00283   2.05171
   R22        2.63626   0.00403   0.00000   0.00819   0.00820   2.64446
   R23        2.04762   0.00054   0.00000   0.00141   0.00141   2.04903
   R24        2.63574  -0.00036   0.00000  -0.00089  -0.00089   2.63485
   R25        2.05235   0.00177   0.00000   0.00467   0.00467   2.05703
   R26        2.63562  -0.00116   0.00000  -0.00504  -0.00532   2.63030
[...]
 000578,-0.00005794,0.00208661,-0.00267703,0.00000134,0.00000360,0.0000
 0086,0.00000043,-0.00001362,-0.00000690,-0.00004849,-0.00003748,0.0000
 4563,0.00012521,-0.00028356,-0.00010447,-0.00000092,0.00000232,0.00000
 338,-0.00000068,-0.00000029,0.00000209,-0.01073981,0.14978141,0.121312
 09,-0.00004949,0.00009045,-0.00022688,-0.00021891,-0.00008161,0.000487
 75,0.00013324,-0.00000814,-0.00014547,0.00558102,0.00257678,0.00185216
 ,-0.00007630,-0.00006418,-0.00004642,0.00001729,-0.00001618,0.00001312
 ,-0.00045218,-0.00068921,-0.00056402,0.00003370,0.00002496,-0.00000043
 ,-0.00007058,0.00001501,0.00005187,0.00047630,0.00210701,0.00397763,0.
 00002286,-0.00000596,0.00001805,-0.00003063,0.00002160,0.00003358,0.00
 433647,0.00003362,0.00465901,-0.00002711,-0.00000015,0.00000371,0.0000
 4394,0.00000009,0.00000397,-0.14091745,0.09979307,0.09978018,0.0000083
 1,0.00000445,0.00000319,-0.00002613,-0.00003610,-0.00001733,-0.0030962
 3,0.00853401,0.00511019,-0.00000228,0.00001637,-0.00001165,0.00000641,
 0.00001723,-0.00000167,-0.00068328,-0.00024503,-0.00041345,0.00000854,
 -0.00001513,-0.00000550,-0.00000003,-0.00000228,-0.00000715,-0.0025036
 8,-0.00110520,-0.00202663,-0.00000749,0.00000019,0.00000017,0.00002720
 ,0.00001402,0.00002835,-0.00001029,0.00000084,0.00000612,-0.00024370,0
 .00044761,0.00028640,0.00000413,-0.00000349,0.00000095,-0.00000480,0.0
 0000761,-0.00000305,0.14002520,-0.00005020,0.00011740,0.00010059,0.000
 88991,-0.00010201,-0.00111474,-0.00013950,-0.00042737,0.00015541,0.002
 12739,-0.00416501,0.00342487,0.00018126,0.00003618,0.00010447,0.000024
 79,-0.00002305,-0.00002169,-0.00074974,-0.00072791,0.00096060,-0.00003
 765,-0.00000939,-0.00001251,0.00013072,0.00001755,0.00001815,0.0177781
 1,-0.01158030,-0.01824280,-0.00006816,-0.00001808,-0.00003997,-0.00001
 804,0.00000913,-0.00000426,0.00027441,0.00106525,0.00350735,0.00000411
 ,0.00000309,-0.00000011,0.00001788,-0.00000158,-0.00005025,0.09997444,
 -0.15054031,-0.08717870,-0.00001834,0.00000716,0.00001555,0.00001738,-
 0.00003197,-0.00001472,-0.00734531,0.01015661,0.00736841,-0.00004533,-
 0.00000762,-0.00000951,-0.00001717,-0.00000408,-0.00000188,-0.00019811
 ,-0.00010441,-0.00026503,0.00001241,-0.00000196,0.00002051,-0.00000400
 ,-0.00001007,0.00000968,-0.00143177,0.00018369,-0.00043823,0.00002250,
 -0.00000861,0.00000036,-0.00000147,0.00000856,-0.00000105,0.00001186,0
 .00000045,0.00000146,-0.00037975,0.00034292,0.00045833,-0.00000314,-0.
 00000966,-0.00000925,0.00001395,-0.00000815,-0.00001115,-0.11006393,0.
 15576547,0.00003000,-0.00009126,-0.00008762,-0.00039768,0.00039936,0.0
 0044034,0.00008215,0.00004318,-0.00011524,0.00200845,0.00353220,0.0025
 1753,-0.00002891,-0.00010918,0.00001337,0.00000895,-0.00002577,0.00000
 804,-0.00066582,0.00087116,-0.00058634,0.00002840,0.00001393,-0.000012
 83,-0.00004136,0.00001801,0.00005748,-0.00559690,0.00658675,0.00854301
 ,0.00001760,-0.00001515,-0.00000495,-0.00002813,0.00000749,0.00002820,
 0.00441442,0.00396413,-0.00214624,-0.00001860,0.00000858,0.00000820,0.
 00003281,-0.00000348,0.00001023,0.09970805,-0.08736735,-0.14103161,-0.
 00000202,0.00000611,0.00000012,-0.00001879,-0.00002363,-0.00001255,0.0
 1505655,-0.01759661,-0.00922003,-0.00001788,0.00000565,-0.00000386,-0.
 00001159,0.00001379,-0.00001294,-0.00040157,-0.00025589,-0.00026683,0.
 00001407,0.00000294,-0.00000213,-0.00000129,0.00000231,-0.00000752,-0.
 00185245,-0.00116245,-0.00065018,-0.00000015,0.00000759,-0.00000154,0.
 00001110,-0.00000371,0.00002024,-0.00000444,0.00000275,-0.00000061,0.0
 0079943,-0.00084845,-0.00062217,0.00000358,-0.00000356,-0.00000428,-0.
 00000197,0.00000390,-0.00000458,-0.11114200,0.09239235,0.14371281,0.00
 006849,0.00006814,-0.00023346,-0.00002720,-0.00031623,0.00119406,-0.00
 000231,-0.00023945,-0.00012903,-0.00023122,0.00005857,-0.00018528,-0.0
 0080841,-0.00531769,-0.00311473,-0.00007533,0.00006287,0.00006369,0.00
 001323,-0.00004747,0.00003174,-0.00058949,0.00057937,-0.00086800,-0.00
 002653,0.00003676,0.00001442,0.00000557,-0.00004859,-0.00000092,-0.008
 52854,-0.01239904,0.01744479,-0.00001628,-0.00001281,-0.00001778,0.000
 02044,0.00002032,0.00000727,0.00323621,-0.00285757,-0.00251939,-0.0000
 1326,0.00000507,-0.00001495,0.00000370,0.00001353,0.00001414,-0.134369
 11,-0.09073340,0.09668746,-0.00002056,0.00000943,0.00000910,0.00001479
 ,-0.00003926,0.00000980,0.00766078,0.00412361,-0.00619807,0.00001498,-
 0.00000218,0.00000467,-0.00001753,-0.00000600,-0.00000749,-0.00038681,
 0.00047751,0.00021202,-0.00000582,-0.00002619,-0.00000119,-0.00001780,
 -0.00000358,0.00000194,-0.00104393,0.00223214,0.00001981,0.00003196,-0
 .00004047,0.00004545,-0.00001512,0.00000351,0.00000178,-0.00000381,-0.
 00000898,0.00000578,0.00022591,0.00018075,-0.00036674,-0.00001205,0.00
 000541,0.00001458,0.00000618,-0.00000915,-0.00000089,0.13603798,-0.000
 04865,0.00004678,-0.00017522,0.00004252,-0.00011454,0.00094642,-0.0000
 9470,-0.00012618,-0.00013351,-0.00016733,0.00010391,-0.00003788,-0.005
 63293,0.00317631,-0.00099911,-0.00006493,0.00008592,-0.00001358,0.0000
 4794,-0.00003133,-0.00003160,0.00041530,-0.00066336,-0.00093811,-0.000
 02088,-0.00003979,0.00000604,-0.00001847,-0.00005882,0.00007317,-0.007
 60961,-0.00433881,0.01178100,-0.00002024,-0.00002478,0.00000468,0.0000
 2659,-0.00002811,0.00001138,-0.00267787,0.00559998,0.00052214,-0.00000
 369,0.00000058,0.00001497,0.00002411,0.00001832,-0.00001186,-0.0906640
 4,-0.12419986,0.09757420,-0.00000645,0.00000532,-0.00000663,-0.0000209
 1,-0.00001417,0.00001971,-0.00054791,0.00354472,-0.00120641,0.00000466
 ,-0.00000076,-0.00000215,0.00000101,0.00000396,-0.00001104,0.00050945,
 -0.00068622,-0.00008882,0.00002519,-0.00000810,-0.00001206,-0.00001333
 ,0.00001189,-0.00000565,0.00218199,-0.00227671,-0.00064564,0.00001818,
 -0.00000240,0.00005364,-0.00001199,-0.00000397,0.00000876,0.00000301,-
 0.00000810,0.00000545,-0.00005398,0.00007771,-0.00010500,-0.00000113,0
 .00000470,0.00000119,0.00000233,-0.00001811,-0.00000140,0.10206592,0.1
 2236292,0.00012439,0.00010952,-0.00005303,-0.00032092,-0.00032913,0.00
 046068,-0.00003188,-0.00002318,-0.00002792,-0.00005027,0.00004102,-0.0
 0005113,-0.00288521,-0.00103442,0.00090688,-0.00001911,0.00001859,-0.0
 0001930,0.00002056,0.00000280,0.00002658,-0.00087278,-0.00079733,-0.00
 057446,-0.00000509,-0.00001034,0.00001071,0.00000897,-0.00000487,0.000
 00876,-0.00693068,-0.00640519,0.01002906,-0.00000042,-0.00000629,0.000
 00112,0.00000474,0.00000619,0.00000655,-0.00299896,0.00016453,-0.00512
 306,-0.00000283,0.00000687,0.00000751,0.00000431,-0.00000402,-0.000000
 08,0.09647253,0.09775684,-0.17392396,0.00000378,0.00000091,-0.00000046
 ,0.00000470,-0.00000682,-0.00000189,0.01859277,0.01715070,-0.01326293,
 -0.00000047,-0.00000058,0.00000009,-0.00001426,-0.00000236,-0.00000299
 ,0.00017186,-0.00007310,0.00000127,-0.00002441,0.00001317,-0.00000670,
 -0.00000372,-0.00001196,-0.00000315,0.00073207,-0.00031284,0.00053830,
 -0.00003886,-0.00000708,0.00000751,-0.00000020,-0.00000093,0.00000318,
 -0.00000309,-0.00000258,-0.00000190,0.00088853,0.00088514,-0.00082572,
 0.00000093,0.00000127,-0.00000534,0.00000003,0.00000065,0.00000175,-0.
 10289237,-0.10629844,0.18142796,-0.00000094,-0.00000075,0.00003148,-0.
 00002564,0.00004300,-0.00009075,0.00033198,-0.00079010,-0.00062098,-0.
 00001856,-0.00001717,0.00001510,-0.00004728,0.00005227,0.00001733,0.00
 193232,-0.00017873,0.00034908,-0.00000597,0.00001014,-0.00000656,-0.00
 006369,0.00002485,0.00003098,-0.00280275,-0.00385819,-0.00149253,0.000
 01660,0.00001991,-0.00001086,0.00001716,0.00004222,-0.00003808,0.00210
 836,-0.00166675,-0.00094027,-0.00000407,-0.00001211,0.00001292,0.00003
 509,0.00003900,0.00002201,-0.01729782,0.01159911,0.00926519,-0.0000011
 6,0.00000249,-0.00000145,-0.00000806,-0.00000829,-0.00001608,-0.279046
 41,0.08398252,0.07507490,-0.00000227,0.00001091,0.00000098,-0.00000510
 ,-0.00001520,0.00001737,-0.00001318,-0.00014762,-0.00008671,-0.0000009
 3,-0.00002012,0.00001777,0.00000723,-0.00002221,0.00001390,-0.00083802
 ,0.00056860,0.00045231,0.00000195,-0.00000666,-0.00000236,0.00000369,-
 0.00000285,-0.00000014,0.00000975,-0.00000125,-0.00002714,0.00051370,0
 .00054608,-0.00003510,-0.00000041,0.00000669,-0.00000472,-0.00000237,-
 0.00000243,-0.00000540,0.00053058,-0.00017877,-0.00054562,-0.00000365,
 0.00000444,-0.00000025,-0.00000570,-0.00000382,0.00000230,0.29469363,0
 .00011814,0.00013557,0.00016924,0.00005059,-0.00028249,0.00035344,-0.0
 0085217,-0.00116289,-0.00007731,0.00002359,-0.00002256,-0.00002225,-0.
 00002567,-0.00003940,-0.00001529,-0.00055619,-0.00216082,-0.00591557,0
 .00004035,-0.00001323,0.00000546,-0.00005532,0.00001964,-0.00000278,-0
 .00342762,0.00121650,-0.00386172,-0.00002313,-0.00000180,0.00002458,0.
 00004140,0.00004497,-0.00000514,0.02445951,-0.00347201,-0.00658112,0.0
 0000318,0.00002289,-0.00001675,0.00001741,0.00003601,0.00000736,-0.014
 54605,0.00934453,0.00489539,0.00000291,-0.00000783,0.00001045,-0.00001
 745,-0.00001402,-0.00001367,0.08401542,-0.08539030,-0.03763012,0.00000
 389,-0.00001684,-0.00000941,0.00000545,-0.00001038,0.00002468,0.001164
 05,-0.00029879,-0.00029513,-0.00000393,0.00000312,-0.00002945,-0.00000
 090,-0.00002075,0.00000115,-0.00068722,0.00029776,0.00021171,-0.000007
 94,-0.00000108,-0.00000106,-0.00000363,-0.00000593,0.00000632,-0.00007
 179,-0.00002908,-0.00000712,-0.00020230,-0.00068586,0.00201712,0.00000
 151,-0.00000814,0.00000553,0.00000385,0.00000085,0.00000071,0.00054471
 ,-0.00080059,0.00213882,0.00000273,-0.00000370,0.00000099,-0.00000002,
 0.00000228,0.00000049,-0.09001977,0.08332801,0.00006324,-0.00007342,-0
 .00016904,-0.00007402,0.00047854,-0.00063824,-0.00069236,-0.00005474,-
 0.00090350,-0.00003668,0.00004786,0.00008609,0.00003266,0.00001615,-0.
 00003215,-0.00001728,-0.00594184,0.00324844,0.00001681,0.00000077,0.00
 002990,0.00003371,0.00001711,0.00002885,-0.00117303,-0.00387192,0.0054
 1502,0.00001497,0.00007559,0.00000393,0.00000123,0.00001035,0.00000709
 ,0.01585252,-0.00438153,-0.00072593,-0.00000209,0.00002328,0.00000328,
 0.00000721,-0.00001159,0.00000269,-0.00757563,0.00257230,0.00597866,-0
 .00001270,-0.00001418,0.00001477,0.00000787,0.00001310,0.00000268,0.07
 512897,-0.03750423,-0.06879493,0.00000982,-0.00000239,-0.00001686,0.00
 000098,0.00000664,-0.00000868,0.00076599,-0.00017569,-0.00014225,-0.00
 001211,-0.00002075,-0.00000895,0.00000491,0.00000715,-0.00000419,-0.00
 038189,0.00008879,0.00016798,0.00000506,0.00000126,-0.00000150,-0.0000
 0185,-0.00000794,-0.00000549,0.00000362,-0.00005490,0.00003624,-0.0005
 1749,0.00196817,-0.00250852,-0.00000105,0.00000547,0.00000096,-0.00000
 287,-0.00000015,0.00000033,-0.00005119,0.00217593,-0.00282644,-0.00000
 241,-0.00000013,-0.00000434,0.00000358,0.00000006,-0.00000061,-0.08139
 797,0.04460943,0.06176496,0.00004758,0.00004768,-0.00011541,-0.0006043
 6,-0.00039717,-0.00033277,-0.00004323,-0.00000256,-0.00000321,-0.00109
 268,-0.00012077,0.00035592,0.00003575,-0.00010761,0.00012166,0.0000273
 3,0.00002878,-0.00000785,0.00267655,0.00363262,0.00530320,-0.00001616,
 0.00000270,0.00002773,-0.00001845,-0.00000610,-0.00002558,0.00387517,0
 .00039636,0.00495666,-0.00002948,-0.00000725,-0.00001705,0.00001493,0.
 00000265,0.00001046,0.00071161,0.01727417,-0.00661745,0.00001269,0.000
 02414,-0.00002299,0.00000660,-0.00000615,-0.00000506,0.00611662,-0.012
 21635,0.00322503,-0.00000957,0.00000124,-0.00000326,-0.00000700,-0.000
 00244,0.00000264,-0.05519035,0.05488537,-0.00641696,-0.00001047,-0.000
 00216,0.00001067,0.00001432,-0.00000030,0.00000294,-0.00002652,0.00089
 632,-0.00023749,-0.00000460,-0.00001841,-0.00002714,-0.00000093,-0.000
 00620,0.00000496,0.00013935,-0.00054916,0.00019360,0.00000667,0.000003
 46,-0.00000567,0.00003344,-0.00003110,-0.00002354,-0.00000686,0.000001
 08,0.00000085,-0.00240098,-0.00144463,-0.00177500,-0.00000074,-0.00000
 518,-0.00000353,-0.00000147,0.00000094,0.00000115,-0.00231235,-0.00090
 375,-0.00198457,-0.00000350,-0.00000041,-0.00000172,-0.00000196,0.0000
 0263,-0.00000099,0.04805875,0.00003488,-0.00005973,0.00003032,-0.00019
 803,-0.00009938,-0.00010425,-0.00002389,-0.00004560,0.00004333,-0.0003
 3191,0.00067575,-0.00059227,0.00003396,-0.00000517,0.00004259,0.000015
 68,-0.00003608,0.00002112,0.00395670,0.00044810,-0.00185499,-0.0000087
 8,0.00000997,-0.00003702,0.00000221,0.00003810,0.00003129,0.00025102,0
 .00180017,0.00293087,-0.00002169,-0.00000638,-0.00001319,-0.00003417,0
 .00000381,0.00001370,0.00122117,-0.01233037,0.00784278,0.00000209,-0.0
 0000006,0.00002250,0.00001614,0.00000359,-0.00000170,0.00357778,-0.006
 17133,0.00026598,0.00000123,-0.00000091,0.00000239,-0.00000024,-0.0000
 1432,-0.00001348,0.05493404,-0.30160239,0.07822410,-0.00002244,-0.0000
 0339,-0.00000386,-0.00000944,-0.00000252,-0.00002131,0.00004360,-0.000
 66449,0.00040587,0.00003002,0.00000913,0.00002606,-0.00000034,-0.00000
 017,-0.00000137,0.00020156,-0.00037140,-0.00004356,0.00000617,0.000009
 45,-0.00000310,0.00002172,-0.00001145,-0.00003329,0.00000558,0.0000015
 3,0.00000026,-0.00096463,0.00010535,-0.00111081,-0.00000095,-0.0000080
 8,-0.00000952,0.00000319,-0.00000545,-0.00000327,-0.00136858,0.0000999
 6,-0.00036573,-0.00000472,-0.00000418,0.00000146,0.00000453,-0.0000032
 1,-0.00000281,-0.06136927,0.31824957,-0.00007553,0.00012502,0.00000217
 ,-0.00039405,-0.00021619,-0.00030864,0.00001313,0.00000180,0.00000302,
 0.00050444,-0.00054715,-0.00131561,-0.00000988,-0.00007685,0.00008228,
 0.00001333,-0.00001850,0.00002621,0.00502045,-0.00135820,0.00046439,-0
 .00001215,0.00001709,-0.00003093,-0.00004395,0.00003188,0.00003434,0.0
 0524641,0.00238410,-0.00254151,-0.00002230,0.00000169,-0.00001184,-0.0
 0001946,0.00000680,0.00002429,0.00310635,-0.01723163,0.00909363,0.0000
 1568,0.00000858,0.00000845,0.00001577,0.00000055,0.00000176,-0.0065175
 7,0.02538244,-0.00230156,-0.00002559,-0.00001075,0.00000058,-0.0000136
 0,-0.00000672,-0.00001280,-0.00644949,0.07830042,-0.07605612,-0.000007
 04,-0.00000469,0.00001604,0.00001770,-0.00000308,-0.00001849,0.0002133
 4,-0.00081366,0.00030727,0.00001988,-0.00000099,0.00001147,0.00000160,
 -0.00000330,-0.00000463,-0.00026611,0.00123195,-0.00016886,0.00000233,
 -0.00001750,0.00000352,0.00001376,0.00000085,0.00002987,-0.00000401,0.
 00000094,0.00000150,-0.00205402,-0.00037133,-0.00062980,0.00000122,-0.
 00000392,-0.00000076,-0.00000174,0.00000029,0.00000087,-0.00170170,-0.
 00111988,-0.00056075,-0.00000115,0.00000001,-0.00000216,-0.00000017,0.
 00000008,-0.00000093,0.00341236,-0.08568852,0.07385147,-0.00017219,-0.
 00003492,-0.00003077,-0.00022171,0.00046215,0.00003502,-0.00003801,-0.
 00006766,-0.00000620,0.00004234,-0.00002316,-0.00003025,0.00012441,0.0
 0072287,0.00065683,-0.00001769,0.00002070,0.00002974,-0.00002447,-0.00
 005638,-0.00003689,0.00187478,-0.00438088,0.00236316,-0.00003254,0.000
 01887,0.00000558,-0.00005290,0.00004676,-0.00000177,0.00371910,-0.0025
 7357,-0.00198086,-0.00001283,0.00000818,-0.00000155,-0.00003605,0.0000
 6400,-0.00001924,-0.00876380,-0.00733726,-0.00821261,0.00001011,-0.000
 02178,-0.00002301,-0.00000548,-0.00004108,0.00003742,-0.00192890,-0.00
 398803,0.00022152,-0.00001939,-0.00000285,0.00000190,0.00003519,-0.000
 01244,-0.00004319,-0.22161291,-0.12496672,-0.07415352,0.00000599,0.000
 00265,0.00000275,0.00003893,0.00000665,0.00000922,-0.00048269,-0.00032
 840,-0.00041725,0.00003129,-0.00005381,-0.00001409,0.00000392,0.000009
 42,0.00000632,-0.00014626,-0.00024782,0.00006973,0.00004464,-0.0000131
 9,0.00000617,-0.00000574,0.00000142,-0.00000035,-0.00000309,-0.0000014
 6,0.00000303,-0.00100484,0.00197233,0.00076275,-0.00001065,0.00000486,
 0.00000918,0.00000576,-0.00000107,0.00000168,-0.00111989,0.00231509,0.
 00006476,-0.00000612,-0.00000024,0.00000047,0.00000430,-0.00000416,0.0
 0000172,0.22977738,0.00001997,-0.00007539,-0.00006930,0.00043350,-0.00
 054089,-0.00009664,0.00007740,0.00008307,0.00001794,-0.00005361,0.0000
 7672,0.00004575,0.00066895,-0.00058439,0.00047838,0.00003840,0.0000006
 4,-0.00003613,-0.00001402,0.00000130,0.00003226,-0.00432603,0.00304213
 ,0.00369812,0.00000360,0.00004267,-0.00001210,0.00003930,-0.00004523,0
 .00000757,-0.00257843,0.00553129,0.00096428,-0.00000221,0.00001083,0.0
 0001159,0.00000925,-0.00002961,-0.00001545,-0.01235510,-0.00472235,-0.
 00763514,0.00001285,-0.00001066,-0.00000929,0.00001284,0.00002971,-0.0
 0002555,0.00068432,0.00356995,0.00145083,-0.00000790,-0.00001172,-0.00
 000147,-0.00000942,0.00000218,0.00003799,-0.12479416,-0.12260382,-0.04
 627760,0.,-0.00000349,-0.00000238,0.00001652,-0.00000214,-0.00002320,-
 0.00063763,-0.00031789,-0.00035404,-0.00000307,-0.00001549,0.00002006,
 -0.00000994,0.00000194,-0.00000749,-0.00002983,0.00012388,0.00011841,0
 .00001944,0.00001392,0.00000414,-0.00000096,-0.00000458,0.00000309,0.0
 0000226,-0.00000110,0.00000350,0.00212110,-0.00213926,-0.00029013,0.00
 000371,0.00000263,-0.00000311,-0.00000481,-0.00001008,-0.00000957,0.00
 216989,-0.00239698,-0.00082869,-0.00000397,-0.00000043,0.00000027,-0.0
 0000318,-0.00000842,-0.00000164,0.13850096,0.12099107,-0.00020247,-0.0
 0020646,0.00018046,0.00006920,-0.00010344,-0.00015256,0.00001730,-0.00
 001919,0.00001077,-0.00002253,0.00005083,0.00001208,0.00054825,0.00051
 667,-0.00138972,-0.00001257,0.00000159,0.00000756,0.00003860,0.0000140
 2,0.00001789,0.00197050,0.00327626,-0.00177164,0.00001247,-0.00001319,
 0.00000886,0.00003507,-0.00003517,-0.00001780,-0.00146654,0.00137704,-
 0.00549589,0.00000739,-0.00000727,-0.00000005,0.00001317,-0.00003456,0
 .00001739,0.01638608,0.01082834,0.01086464,-0.00000787,0.00000425,0.00
 000855,-0.00000488,0.00002886,-0.00000617,-0.02450339,-0.01702581,-0.0
 0409742,0.00000243,0.00000959,-0.00000093,-0.00001888,-0.00000312,0.00
 002386,-0.07409181,-0.04624117,-0.08861018,0.00000486,0.00000393,-0.00
 000334,-0.00002979,-0.00000147,-0.00000086,0.00080497,0.00054882,0.000
 35211,0.00000382,0.00001991,-0.00001549,-0.00000994,0.00002092,0.00000
 445,-0.00116798,-0.00073098,-0.00032356,0.00013703,0.00003928,0.000011
 33,-0.00000234,-0.00000015,-0.00000032,0.00000147,-0.00000216,0.000001
 03,0.00004428,-0.00081958,0.00044780,-0.00000014,-0.00000013,0.0000018
 8,-0.00000068,-0.00000287,-0.00000218,0.00076536,-0.00029871,0.0004488
 7,-0.00000048,0.00000097,0.00000068,-0.00000259,-0.00000057,0.00000228
 ,0.08068263,0.04880472,0.08946565\\-0.00000063,-0.00001046,-0.00000320
 ,0.00000376,-0.00000462,0.00001829,0.00001407,0.00001542,0.00000364,-0
 .00000932,0.00000599,0.00000804,0.00001062,-0.00000618,-0.00001634,-0.
 00002050,-0.00000730,-0.00000398,0.00000046,0.00000783,-0.00000470,-0.
 00000619,0.00000999,0.00000611,0.00000697,-0.00000723,-0.00000881,0.00
 000484,-0.00000679,0.00000102,0.00000577,0.00000471,0.00000222,0.00001
 135,-0.00000764,-0.00001147,0.00000002,-0.00000347,0.00000275,0.000003
 46,-0.00001768,0.00000455,-0.00001223,0.00000046,0.00000128,0.00000109
 ,0.00000447,-0.00000238,0.00000581,-0.00001395,-0.00000153,0.00000463,
 0.00001082,0.00000264,-0.00000367,0.00000313,0.00001283,-0.00000721,0.
 00001669,-0.00000647,0.00000252,-0.00000057,0.00000358,-0.00000338,0.0
 0000052,0.00000024,-0.00000072,0.00000339,0.00000138,0.00000247,0.0000
 0151,-0.00000096,0.00000129,-0.00000098,0.00000079,-0.00000720,-0.0000
 0174,-0.00000297,-0.00000163,-0.00000215,-0.00000713,-0.00000099,0.000
 00027,0.00000149,-0.00000186,0.00000278,0.00000340,-0.00000081,0.00000
 361,-0.00000156,0.00000257,0.00000194,-0.00000494,-0.00000181,-0.00000
 139,0.00000506,0.00000056,-0.00000243,-0.00000251,-0.00000046,0.000000
 21,-0.00000375,-0.00000333,0.00000111,0.00000582,-0.00000034,-0.000000
 29,-0.00000243\\\@


 The impersonal hand of government can
 never replace the helping hand of a neighbor.
                        -- Hubert H. Humphrey
 Job cpu time:       0 days 18 hours  8 minutes 35.8 seconds.
 Elapsed time:       0 days  1 hours  8 minutes 19.1 seconds.
 File lengths (MBytes):  RWF=    927 Int=      0 D2E=      0 Chk=     26 Scr=      1
 Normal termination of Gaussian 16 at Sun Sep 28 01:53:08 2025.
