 Entering Gaussian System, Link 0=g16
 Input=VILN0168.gjf
 Output=VILN0168.log
 Initial command:
 /usr/local/g16/l1.exe "/dados_01/scratch/Gau-2312236.inp" -scrdir="/dados_01/scratch/"
 Entering Link 1 = /usr/local/g16/l1.exe PID=   2312237.
  
 Copyright (c) 1988-2017, Gaussian, Inc.  All Rights Reserved.
  
 This is part of the Gaussian(R) 16 program.  It is based on
 the Gaussian(R) 09 system (copyright 2009, Gaussian, Inc.),
 the Gaussian(R) 03 system (copyright 2003, Gaussian, Inc.),
 the Gaussian(R) 98 system (copyright 1998, Gaussian, Inc.),
 the Gaussian(R) 94 system (copyright 1995, Gaussian, Inc.),
 the Gaussian 92(TM) system (copyright 1992, Gaussian, Inc.),
 the Gaussian 90(TM) system (copyright 1990, Gaussian, Inc.),
 the Gaussian 88(TM) system (copyright 1988, Gaussian, Inc.),
 the Gaussian 86(TM) system (copyright 1986, Carnegie Mellon
 University), and the Gaussian 82(TM) system (copyright 1983,
 Carnegie Mellon University). Gaussian is a federally registered
 trademark of Gaussian, Inc.
  
 This software contains proprietary and confidential information,
 including trade secrets, belonging to Gaussian, Inc.
  
 This software is provided under written license and may be
 used, copied, transmitted, or stored only in accord with that
 written license.
  
 The following legend is applicable only to US Government
 contracts under FAR:
  
                    RESTRICTED RIGHTS LEGEND
  
 Use, reproduction and disclosure by the US Government is
 subject to restrictions as set forth in subparagraphs (a)
 and (c) of the Commercial Computer Software - Restricted
 Rights clause in FAR 52.227-19.
  
 Gaussian, Inc.
 340 Quinnipiac St., Bldg. 40, Wallingford CT 06492
  
  
 ---------------------------------------------------------------
 Warning -- This program may not be used in any manner that
 competes with the business of Gaussian, Inc. or will provide
 assistance to any competitor of Gaussian, Inc.  The licensee
 of this program is prohibited from giving any competitor of
 Gaussian, Inc. access to this program.  By using this program,
 the user acknowledges that Gaussian, Inc. is engaged in the
 business of creating and licensing software in the field of
 computational chemistry and represents and warrants to the
 licensee that it is not a competitor of Gaussian, Inc. and that
 it will not use this program in any manner prohibited above.
 ---------------------------------------------------------------
  

 Cite this work as:
 Gaussian 16, Revision B.01,
 M. J. Frisch, G. W. Trucks, H. B. Schlegel, G. E. Scuseria, 
 M. A. Robb, J. R. Cheeseman, G. Scalmani, V. Barone, 
 G. A. Petersson, H. Nakatsuji, X. Li, M. Caricato, A. V. Marenich, 
 J. Bloino, B. G. Janesko, R. Gomperts, B. Mennucci, H. P. Hratchian, 
 J. V. Ortiz, A. F. Izmaylov, J. L. Sonnenberg, D. Williams-Young, 
 F. Ding, F. Lipparini, F. Egidi, J. Goings, B. Peng, A. Petrone, 
 T. Henderson, D. Ranasinghe, V. G. Zakrzewski, J. Gao, N. Rega, 
 G. Zheng, W. Liang, M. Hada, M. Ehara, K. Toyota, R. Fukuda, 
 J. Hasegawa, M. Ishida, T. Nakajima, Y. Honda, O. Kitao, H. Nakai, 
 T. Vreven, K. Throssell, J. A. Montgomery, Jr., J. E. Peralta, 
 F. Ogliaro, M. J. Bearpark, J. J. Heyd, E. N. Brothers, K. N. Kudin, 
 V. N. Staroverov, T. A. Keith, R. Kobayashi, J. Normand, 
 K. Raghavachari, A. P. Rendell, J. C. Burant, S. S. Iyengar, 
 J. Tomasi, M. Cossi, J. M. Millam, M. Klene, C. Adamo, R. Cammi, 
 J. W. Ochterski, R. L. Martin, K. Morokuma, O. Farkas, 
 J. B. Foresman, and D. J. Fox, Gaussian, Inc., Wallingford CT, 2016.
 
 ******************************************
 Gaussian 16:  ES64L-G16RevB.01 20-Dec-2017
                28-Sep-2025 
 ******************************************
 %nprocs=16
 Will use up to   16 processors via shared memory.
 %mem=40GB
 %chk=VILN0168.chk
 ----------------------------------------------------------------------
 # opt freq=noraman M08HX/6-311++G** scf=xqc Empiricaldispersion=pfd In
 t(Grid=ultraFine)
 ----------------------------------------------------------------------
 1/18=20,19=15,26=4,38=1/1,3;
 2/9=110,12=2,17=6,18=5,40=1/2;
 3/5=4,6=6,7=1111,11=2,25=1,30=1,71=1,74=-74,75=-5,124=11/1,2,3;
 4//1;
 5/5=2,8=3,13=1,38=5/2,8;
 6/7=2,8=2,9=2,10=2,28=1/1;
 7//1,2,3,16;
 1/18=20,19=15,26=4/3(2);
 2/9=110/2;
 99//99;
 2/9=110/2;
 3/5=4,6=6,7=1111,11=2,25=1,30=1,71=1,74=-74,75=-5,124=11/1,2,3;
 4/5=5,16=3,69=1/1;
 5/5=2,8=3,13=1,38=5/2,8;
 7//1,2,3,16;
 1/18=20,19=15,26=4/3(-5);
 2/9=110/2;
 6/7=2,8=2,9=2,10=2,19=2,28=1/1;
 99/9=1/99;
 --------
 VILN0168
 --------
 Symbolic Z-matrix:
 Charge =  0 Multiplicity = 1
 O                     2.2627   -0.987     0. 
 O                     2.3372    1.7917    0.0004 
 O                    -3.6702   -0.303     0.0004 
 C                     1.1085   -0.2634   -0.0001 
 C                    -1.3066   -0.1985   -0.0002 
 C                    -0.1177   -0.9281   -0.0001 
 C                     1.146     1.1309   -0.0002 
 C                    -1.269     1.1959   -0.0002 
 C                    -0.0428    1.8606   -0.0001 
 C                    -2.5853   -0.8912   -0.0001 
 C                     2.1371   -2.4077    0.0001 
 H                    -0.2062   -2.0095    0. 
 H                    -2.1826    1.7848   -0.0002 
 H                    -0.0279    2.9473    0. 
 H                    -2.553    -1.994    -0.0004 
 H                     1.6477   -2.7702   -0.9105 
 H                     1.6479   -2.7701    0.9106 
 H                     3.1516   -2.8203    0. 
 H                     2.1681    2.7496    0.0005 
 

 GradGradGradGradGradGradGradGradGradGradGradGradGradGradGradGradGradGrad
 Berny optimization.
 Initialization pass.
                           ----------------------------
                           !    Initial Parameters    !
                           ! (Angstroms and Degrees)  !
 --------------------------                            --------------------------
 ! Name  Definition              Value          Derivative Info.                !
 --------------------------------------------------------------------------------
 ! R1    R(1,4)                  1.3623         estimate D2E/DX2                !
 ! R2    R(1,11)                 1.4262         estimate D2E/DX2                !
 ! R3    R(2,7)                  1.3622         estimate D2E/DX2                !
 ! R4    R(2,19)                 0.9727         estimate D2E/DX2                !
 ! R5    R(3,10)                 1.2341         estimate D2E/DX2                !
 ! R6    R(4,6)                  1.3948         estimate D2E/DX2                !
 ! R7    R(4,7)                  1.3948         estimate D2E/DX2                !
 ! R8    R(5,6)                  1.3949         estimate D2E/DX2                !
 ! R9    R(5,8)                  1.3949         estimate D2E/DX2                !
 ! R10   R(5,10)                 1.4543         estimate D2E/DX2                !
 ! R11   R(6,12)                 1.085          estimate D2E/DX2                !
 ! R12   R(7,9)                  1.3949         estimate D2E/DX2                !
 ! R13   R(8,9)                  1.3948         estimate D2E/DX2                !
 ! R14   R(8,13)                 1.087          estimate D2E/DX2                !
 ! R15   R(9,14)                 1.0868         estimate D2E/DX2                !
 ! R16   R(10,15)                1.1033         estimate D2E/DX2                !
 ! R17   R(11,16)                1.0955         estimate D2E/DX2                !
 ! R18   R(11,17)                1.0953         estimate D2E/DX2                !
 ! R19   R(11,18)                1.0952         estimate D2E/DX2                !
 ! A1    A(4,1,11)             117.0325         estimate D2E/DX2                !
 ! A2    A(7,2,19)             109.0073         estimate D2E/DX2                !
 ! A3    A(1,4,6)              119.454          estimate D2E/DX2                !
 ! A4    A(1,4,7)              120.5441         estimate D2E/DX2                !
 ! A5    A(6,4,7)              120.0019         estimate D2E/DX2                !
 ! A6    A(6,5,8)              119.9919         estimate D2E/DX2                !
 ! A7    A(6,5,10)             120.0182         estimate D2E/DX2                !
 ! A8    A(8,5,10)             119.99           estimate D2E/DX2                !
 ! A9    A(4,6,5)              120.0022         estimate D2E/DX2                !
 ! A10   A(4,6,12)             123.1399         estimate D2E/DX2                !
 ! A11   A(5,6,12)             116.8579         estimate D2E/DX2                !
 ! A12   A(2,7,4)              120.5593         estimate D2E/DX2                !
 ! A13   A(2,7,9)              119.4392         estimate D2E/DX2                !
 ! A14   A(4,7,9)              120.0015         estimate D2E/DX2                !
 ! A15   A(5,8,9)              120.0059         estimate D2E/DX2                !
 ! A16   A(5,8,13)             121.2609         estimate D2E/DX2                !
 ! A17   A(9,8,13)             118.7332         estimate D2E/DX2                !
 ! A18   A(7,9,8)              119.9966         estimate D2E/DX2                !
 ! A19   A(7,9,14)             120.7566         estimate D2E/DX2                !
 ! A20   A(8,9,14)             119.2468         estimate D2E/DX2                !
 ! A21   A(3,10,5)             123.0894         estimate D2E/DX2                !
 ! A22   A(3,10,15)            120.1429         estimate D2E/DX2                !
 ! A23   A(5,10,15)            116.7677         estimate D2E/DX2                !
 ! A24   A(1,11,16)            111.6477         estimate D2E/DX2                !
 ! A25   A(1,11,17)            111.6525         estimate D2E/DX2                !
 ! A26   A(1,11,18)            107.0795         estimate D2E/DX2                !
 ! A27   A(16,11,17)           112.4556         estimate D2E/DX2                !
 ! A28   A(16,11,18)           106.8032         estimate D2E/DX2                !
 ! A29   A(17,11,18)           106.8074         estimate D2E/DX2                !
 ! D1    D(11,1,4,6)             0.0            estimate D2E/DX2                !
 ! D2    D(11,1,4,7)           179.9999         estimate D2E/DX2                !
 ! D3    D(4,1,11,16)           63.4191         estimate D2E/DX2                !
 ! D4    D(4,1,11,17)          -63.4301         estimate D2E/DX2                !
 ! D5    D(4,1,11,18)          179.9906         estimate D2E/DX2                !
 ! D6    D(19,2,7,4)          -179.9828         estimate D2E/DX2                !
 ! D7    D(19,2,7,9)            -0.0214         estimate D2E/DX2                !
 ! D8    D(1,4,6,5)            179.9999         estimate D2E/DX2                !
 ! D9    D(1,4,6,12)             0.0015         estimate D2E/DX2                !
 ! D10   D(7,4,6,5)              0.0            estimate D2E/DX2                !
 ! D11   D(7,4,6,12)          -179.9984         estimate D2E/DX2                !
 ! D12   D(1,4,7,2)             -0.0293         estimate D2E/DX2                !
 ! D13   D(1,4,7,9)           -179.9904         estimate D2E/DX2                !
 ! D14   D(6,4,7,2)            179.9706         estimate D2E/DX2                !
 ! D15   D(6,4,7,9)              0.0095         estimate D2E/DX2                !
 ! D16   D(8,5,6,4)             -0.0047         estimate D2E/DX2                !
 ! D17   D(8,5,6,12)           179.9938         estimate D2E/DX2                !
 ! D18   D(10,5,6,4)          -179.9954         estimate D2E/DX2                !
 ! D19   D(10,5,6,12)            0.0031         estimate D2E/DX2                !
 ! D20   D(6,5,8,9)              0.0            estimate D2E/DX2                !
 ! D21   D(6,5,8,13)          -179.9953         estimate D2E/DX2                !
 ! D22   D(10,5,8,9)           179.9907         estimate D2E/DX2                !
 ! D23   D(10,5,8,13)           -0.0045         estimate D2E/DX2                !
 ! D24   D(6,5,10,3)           179.9678         estimate D2E/DX2                !
 ! D25   D(6,5,10,15)           -0.0265         estimate D2E/DX2                !
 ! D26   D(8,5,10,3)            -0.0229         estimate D2E/DX2                !
 ! D27   D(8,5,10,15)          179.9828         estimate D2E/DX2                !
 ! D28   D(2,7,9,8)           -179.9758         estimate D2E/DX2                !
 ! D29   D(2,7,9,14)             0.0276         estimate D2E/DX2                !
 ! D30   D(4,7,9,8)             -0.0142         estimate D2E/DX2                !
 ! D31   D(4,7,9,14)           179.9892         estimate D2E/DX2                !
 ! D32   D(5,8,9,7)              0.0095         estimate D2E/DX2                !
 ! D33   D(5,8,9,14)          -179.9939         estimate D2E/DX2                !
 ! D34   D(13,8,9,7)          -179.9951         estimate D2E/DX2                !
 ! D35   D(13,8,9,14)            0.0015         estimate D2E/DX2                !
 --------------------------------------------------------------------------------
 Trust Radius=3.00D-01 FncErr=1.00D-07 GrdErr=1.00D-06 EigMax=2.50D+02 EigMin=1.00D-04
 Number of steps in this run=     93 maximum allowed number of steps=    114.
 GradGradGradGradGradGradGradGradGradGradGradGradGradGradGradGradGradGrad

                          Input orientation:                          
 ---------------------------------------------------------------------
 Center     Atomic      Atomic             Coordinates (Angstroms)
 Number     Number       Type             X           Y           Z
 ---------------------------------------------------------------------
      1          8           0        2.262700   -0.987000    0.000000
      2          8           0        2.337200    1.791700    0.000400
      3          8           0       -3.670200   -0.303000    0.000400
      4          6           0        1.108500   -0.263400   -0.000100
      5          6           0       -1.306600   -0.198500   -0.000200
      6          6           0       -0.117700   -0.928100   -0.000100
      7          6           0        1.146000    1.130900   -0.000200
      8          6           0       -1.269000    1.195900   -0.000200
      9          6           0       -0.042800    1.860600   -0.000100
     10          6           0       -2.585300   -0.891200   -0.000100
     11          6           0        2.137100   -2.407700    0.000100
     12          1           0       -0.206200   -2.009500    0.000000
     13          1           0       -2.182600    1.784800   -0.000200
     14          1           0       -0.027900    2.947300    0.000000
     15          1           0       -2.553000   -1.994000   -0.000400
     16          1           0        1.647700   -2.770200   -0.910500
     17          1           0        1.647900   -2.770100    0.910600
     18          1           0        3.151600   -2.820300    0.000000
     19          1           0        2.168100    2.749600    0.000500
 ---------------------------------------------------------------------
                    Distance matrix (angstroms):
                    1          2          3          4          5
     1  O    0.000000
     2  O    2.779699   0.000000
     3  O    5.972199   6.362124   0.000000
     4  C    1.362268   2.394398   4.778864   0.000000
     5  C    3.655357   4.151888   2.365909   2.415972   0.000000
     6  C    2.381129   3.663857   3.607077   1.394773   1.394919
     7  C    2.394268   1.362209   5.025122   1.394804   2.789722
     8  C    4.151862   3.655086   2.830629   2.789635   1.394907
     9  C    3.663899   2.380997   4.223647   2.415961   2.416006
    10  C    4.848946   5.606154   1.234094   3.746771   1.454272
    11  C    1.426241   4.204165   6.176933   2.378243   4.091410
    12  H    2.672260   4.573621   3.861533   2.185704   2.119104
    13  H    5.238661   4.519805   2.563565   3.876398   2.168145
    14  H    4.552534   2.632320   4.881680   3.405877   3.395752
    15  H    4.919859   6.184301   2.026726   4.049884   2.185711
    16  H    2.094526   4.702774   5.932695   2.720958   4.021216
    17  H    2.094425   4.702512   5.932726   2.721006   4.021412
    18  H    2.037433   4.683353   7.271434   3.272918   5.171981
    19  H    3.737797   0.972711   6.588180   3.193888   4.556845
                    6          7          8          9         10
     6  C    0.000000
     7  C    2.415868   0.000000
     8  C    2.415961   2.415875   0.000000
     9  C    2.789706   1.394886   1.394773   0.000000
    10  C    2.467876   4.243994   2.467515   3.746560   0.000000
    11  C    2.696913   3.674775   4.958573   4.792739   4.959923
    12  H    1.085015   3.419146   3.377001   3.873548   2.628823
    13  H    3.409346   3.392221   1.086954   2.141142   2.706131
    14  H    3.876440   2.162718   2.146563   1.086802   4.612416
    15  H    2.658351   4.842272   3.438622   4.599896   1.103273
    16  H    2.709022   4.037193   5.006569   5.013076   4.719932
    17  H    2.709185   4.037234   5.006697   5.013105   4.720129
    18  H    3.777399   4.431074   5.972568   5.667011   6.052557
    19  H    4.330169   1.914387   3.771954   2.382939   5.987507
                   11         12         13         14         15
    11  C    0.000000
    12  H    2.376893   0.000000
    13  H    6.019706   4.278185   0.000000
    14  H    5.776093   4.960006   2.448293   0.000000
    15  H    4.708310   2.346851   3.796910   5.549106   0.000000
    16  H    1.095496   2.201050   6.020620   6.027143   4.367682
    17  H    1.095290   2.201225   6.020748   6.027119   4.368045
    18  H    1.095194   3.454304   7.047030   6.585927   5.764133
    19  H    5.157393   5.318490   4.456392   2.204881   6.692573
                   16         17         18         19
    16  H    0.000000
    17  H    1.821100   0.000000
    18  H    1.758760   1.758643   0.000000
    19  H    5.618623   5.618361   5.656064   0.000000
 Stoichiometry    C8H8O3
 Framework group  C1[X(C8H8O3)]
 Deg. of freedom    51
 Full point group                 C1      NOp   1
 Largest Abelian subgroup         C1      NOp   1
 Largest concise Abelian subgroup C1      NOp   1
                         Standard orientation:                         
 ---------------------------------------------------------------------
 Center     Atomic      Atomic             Coordinates (Angstroms)
 Number     Number       Type             X           Y           Z
 ---------------------------------------------------------------------
      1          8           0        2.217495   -0.881321   -0.000013
      2          8           0        2.219914    1.898376    0.000387
      3          8           0       -3.731147   -0.351400    0.000387
      4          6           0        1.044919   -0.187894   -0.000113
      5          6           0       -1.371052   -0.185643   -0.000213
      6          6           0       -0.163632   -0.884168   -0.000113
      7          6           0        1.046250    1.206909   -0.000213
      8          6           0       -1.369623    1.209263   -0.000213
      9          6           0       -0.161072    1.905536   -0.000113
     10          6           0       -2.631359   -0.911269   -0.000113
     11          6           0        2.128778   -2.304800    0.000087
     12          1           0       -0.224060   -1.967499   -0.000013
     13          1           0       -2.298187    1.774274   -0.000213
     14          1           0       -0.174357    2.992257   -0.000013
     15          1           0       -2.570473   -2.012860   -0.000413
     16          1           0        1.648942   -2.679869   -0.910513
     17          1           0        1.649140   -2.679764    0.910588
     18          1           0        3.153636   -2.690954   -0.000013
     19          1           0        2.026031    2.851569    0.000487
 ---------------------------------------------------------------------
 Rotational constants (GHZ):           1.7674535           0.8109520           0.5579452
 Standard basis: 6-311++G(d,p) (5D, 7F)
 There are   309 symmetry adapted cartesian basis functions of A   symmetry.
 There are   298 symmetry adapted basis functions of A   symmetry.
   298 basis functions,   468 primitive gaussians,   309 cartesian basis functions
    40 alpha electrons       40 beta electrons
       nuclear repulsion energy       582.0590625032 Hartrees.
 NAtoms=   19 NActive=   19 NUniq=   19 SFac= 1.00D+00 NAtFMM=   60 NAOKFM=F Big=F
 Integral buffers will be    131072 words long.
 Raffenetti 2 integral format.
 Two-electron integral symmetry is turned on.
 R6APFD:  NTU= -4 IXU= 1 FactS= 1.050
 Nuclear repulsion after empirical dispersion term =      582.0483906856 Hartrees.
 One-electron integrals computed using PRISM.
 NBasis=   298 RedAO= T EigKep=  1.52D-06  NBF=   298
 NBsUse=   297 1.00D-06 EigRej=  5.64D-07 NBFU=   297
 ExpMin= 3.60D-02 ExpMax= 8.59D+03 ExpMxC= 1.30D+03 IAcc=3 IRadAn=         5 AccDes= 0.00D+00
 Harris functional with IExCor= 1009 and IRadAn=       5 diagonalized for initial guess.
 HarFok:  IExCor= 1009 AccDes= 0.00D+00 IRadAn=         5 IDoV= 1 UseB2=F ITyADJ=14
 ICtDFT=  3500011 ScaDFX=  1.000000  1.000000  1.000000  1.000000
 FoFCou: FMM=F IPFlag=           0 FMFlag=      100000 FMFlg1=           0
         NFxFlg=           0 DoJE=T BraDBF=F KetDBF=T FulRan=T
         wScrn=  0.000000 ICntrl=       500 IOpCl=  0 I1Cent=   200000004 NGrid=           0
         NMat0=    1 NMatS0=      1 NMatT0=    0 NMatD0=    1 NMtDS0=    0 NMtDT0=    0
 Petite list used in FoFCou.
 Requested convergence on RMS density matrix=1.00D-08 within  32 cycles.
 Requested convergence on MAX density matrix=1.00D-06.
 Requested convergence on             energy=1.00D-06.
 No special actions if energy rises.
 SCF Done:  E(RM08HX) =  -535.287599143     A.U. after   16 cycles
            NFock= 16  Conv=0.44D-08     -V/T= 2.0043
 QCSCF skips out because SCF is already converged.

 **********************************************************************

            Population analysis using the SCF Density.

 **********************************************************************

 Orbital symmetries:
       Occupied  (A) (A) (A) (A) (A) (A) (A) (A) (A) (A) (A) (A)
                 (A) (A) (A) (A) (A) (A) (A) (A) (A) (A) (A) (A)
                 (A) (A) (A) (A) (A) (A) (A) (A) (A) (A) (A) (A)
                 (A) (A) (A) (A)
       Virtual   (A) (A) (A) (A) (A) (A) (A) (A) (A) (A) (A) (A)
                 (A) (A) (A) (A) (A) (A) (A) (A) (A) (A) (A) (A)
                 (A) (A) (A) (A) (A) (A) (A) (A) (A) (A) (A) (A)
                 (A) (A) (A) (A) (A) (A) (A) (A) (A) (A) (A) (A)
                 (A) (A) (A) (A) (A) (A) (A) (A) (A) (A) (A) (A)
                 (A) (A) (A) (A) (A) (A) (A) (A) (A) (A) (A) (A)
                 (A) (A) (A) (A) (A) (A) (A) (A) (A) (A) (A) (A)
                 (A) (A) (A) (A) (A) (A) (A) (A) (A) (A) (A) (A)
                 (A) (A) (A) (A) (A) (A) (A) (A) (A) (A) (A) (A)
                 (A) (A) (A) (A) (A) (A) (A) (A) (A) (A) (A) (A)
                 (A) (A) (A) (A) (A) (A) (A) (A) (A) (A) (A) (A)
                 (A) (A) (A) (A) (A) (A) (A) (A) (A) (A) (A) (A)
                 (A) (A) (A) (A) (A) (A) (A) (A) (A) (A) (A) (A)
                 (A) (A) (A) (A) (A) (A) (A) (A) (A) (A) (A) (A)
                 (A) (A) (A) (A) (A) (A) (A) (A) (A) (A) (A) (A)
                 (A) (A) (A) (A) (A) (A) (A) (A) (A) (A) (A) (A)
                 (A) (A) (A) (A) (A) (A) (A) (A) (A) (A) (A) (A)
                 (A) (A) (A) (A) (A) (A) (A) (A) (A) (A) (A) (A)
                 (A) (A) (A) (A) (A) (A) (A) (A) (A) (A) (A) (A)
                 (A) (A) (A) (A) (A) (A) (A) (A) (A) (A) (A) (A)
                 (A) (A) (A) (A) (A) (A) (A) (A) (A) (A) (A) (A)
                 (A) (A) (A) (A) (A)
 The electronic state is 1-A.
 Alpha  occ. eigenvalues --  -19.65970 -19.65554 -19.60782 -10.62383 -10.62373
 Alpha  occ. eigenvalues --  -10.61725 -10.59545 -10.56023 -10.55784 -10.55338
 Alpha  occ. eigenvalues --  -10.55244  -1.21293  -1.19354  -1.15943  -0.98969
 Alpha  occ. eigenvalues --   -0.88932  -0.87760  -0.81435  -0.76300  -0.72898
 Alpha  occ. eigenvalues --   -0.67012  -0.65356  -0.61695  -0.59279  -0.56963
 Alpha  occ. eigenvalues --   -0.56338  -0.54105  -0.52729  -0.51919  -0.51449
 Alpha  occ. eigenvalues --   -0.48362  -0.47770  -0.46716  -0.43754  -0.43686
 Alpha  occ. eigenvalues --   -0.42180  -0.40397  -0.33969  -0.32371  -0.28721
 Alpha virt. eigenvalues --   -0.04324  -0.03479  -0.03214  -0.01058  -0.00967
 Alpha virt. eigenvalues --   -0.00214   0.00322   0.00668   0.01671   0.03174
 Alpha virt. eigenvalues --    0.03300   0.04171   0.04224   0.05217   0.06358
 Alpha virt. eigenvalues --    0.07191   0.07857   0.08097   0.08248   0.08446
 Alpha virt. eigenvalues --    0.09564   0.09778   0.10352   0.11065   0.11331
 Alpha virt. eigenvalues --    0.11695   0.12943   0.13030   0.13326   0.14160
 Alpha virt. eigenvalues --    0.14487   0.14617   0.14627   0.15868   0.16274
 Alpha virt. eigenvalues --    0.16961   0.18285   0.18682   0.19570   0.19636
 Alpha virt. eigenvalues --    0.20951   0.22233   0.22415   0.22717   0.23846
 Alpha virt. eigenvalues --    0.25142   0.25396   0.25648   0.26465   0.27211
 Alpha virt. eigenvalues --    0.27580   0.27955   0.29044   0.29428   0.29741
 Alpha virt. eigenvalues --    0.31275   0.32171   0.32267   0.32675   0.33525
 Alpha virt. eigenvalues --    0.35077   0.35721   0.36392   0.37982   0.38790
 Alpha virt. eigenvalues --    0.39192   0.40052   0.41637   0.43573   0.45725
 Alpha virt. eigenvalues --    0.45778   0.48763   0.50358   0.51220   0.54343
 Alpha virt. eigenvalues --    0.55080   0.55624   0.57183   0.57976   0.59535
 Alpha virt. eigenvalues --    0.60699   0.61028   0.62657   0.63311   0.64172
 Alpha virt. eigenvalues --    0.64543   0.65600   0.66256   0.68087   0.68824
 Alpha virt. eigenvalues --    0.70279   0.71935   0.72494   0.74753   0.75182
 Alpha virt. eigenvalues --    0.76431   0.79692   0.80077   0.82267   0.84138
 Alpha virt. eigenvalues --    0.85915   0.87709   0.90238   0.90875   0.93308
 Alpha virt. eigenvalues --    0.94813   0.96330   0.96789   1.00443   1.00943
 Alpha virt. eigenvalues --    1.01181   1.02343   1.03662   1.05144   1.05625
 Alpha virt. eigenvalues --    1.09255   1.09852   1.11259   1.13629   1.14486
 Alpha virt. eigenvalues --    1.15016   1.18275   1.22104   1.23576   1.25177
 Alpha virt. eigenvalues --    1.26585   1.29283   1.29658   1.30358   1.32897
 Alpha virt. eigenvalues --    1.35075   1.41695   1.43438   1.44427   1.45608
 Alpha virt. eigenvalues --    1.48854   1.53752   1.53890   1.55722   1.56273
 Alpha virt. eigenvalues --    1.56925   1.59397   1.61244   1.61534   1.65242
 Alpha virt. eigenvalues --    1.66399   1.67863   1.69901   1.71644   1.72316
 Alpha virt. eigenvalues --    1.74412   1.74809   1.76474   1.78903   1.82167
 Alpha virt. eigenvalues --    1.82452   1.82720   1.88262   1.89014   1.91523
 Alpha virt. eigenvalues --    1.94988   1.95565   1.97521   1.98561   2.00962
 Alpha virt. eigenvalues --    2.04475   2.05794   2.08469   2.09118   2.10937
 Alpha virt. eigenvalues --    2.14858   2.20229   2.20658   2.23046   2.25439
 Alpha virt. eigenvalues --    2.26508   2.35073   2.36794   2.36911   2.42690
 Alpha virt. eigenvalues --    2.45525   2.46808   2.48123   2.52547   2.59129
 Alpha virt. eigenvalues --    2.60301   2.62317   2.64314   2.65117   2.68392
 Alpha virt. eigenvalues --    2.68751   2.70956   2.72447   2.74946   2.75192
 Alpha virt. eigenvalues --    2.77600   2.83741   2.85094   2.86203   2.90695
 Alpha virt. eigenvalues --    2.92179   2.93190   2.95364   3.02726   3.04669
 Alpha virt. eigenvalues --    3.12931   3.13319   3.13639   3.14931   3.15810
 Alpha virt. eigenvalues --    3.16313   3.22542   3.26292   3.30313   3.31635
 Alpha virt. eigenvalues --    3.38387   3.40955   3.45436   3.46808   3.50148
 Alpha virt. eigenvalues --    3.53513   3.56712   3.61054   3.68159   3.72347
 Alpha virt. eigenvalues --    3.77925   3.81551   3.83717   3.92277   4.00360
 Alpha virt. eigenvalues --    4.07214   4.15590   4.20769   4.23519   4.31369
 Alpha virt. eigenvalues --    4.42794   4.91638   5.10151   5.12628   5.17209
 Alpha virt. eigenvalues --    5.31517   5.46487   5.60470   5.77202   5.84780
 Alpha virt. eigenvalues --    5.93463  23.63383  23.95154  23.97370  23.97581
 Alpha virt. eigenvalues --   23.99831  24.09252  24.12826  24.21466  49.92513
 Alpha virt. eigenvalues --   49.99143  50.00539
          Condensed to atoms (all electrons):
               1          2          3          4          5          6
     1  O    8.119261   0.064375  -0.000040   0.338400  -0.063691   0.664533
     2  O    0.064375   7.920556  -0.000092  -0.667424  -0.001626   0.124741
     3  O   -0.000040  -0.000092   7.958485  -0.015141  -0.451725  -0.063730
     4  C    0.338400  -0.667424  -0.015141  24.533464  -7.393167   1.287920
     5  C   -0.063691  -0.001626  -0.451725  -7.393167  21.316300  -6.304294
     6  C    0.664533   0.124741  -0.063730   1.287920  -6.304294  28.886892
     7  C   -1.064081   0.251145   0.046324  -5.827060   3.875405 -14.548661
     8  C    0.013872   0.009960  -0.007582  -0.295141   0.549596  -2.301633
     9  C   -0.009491   0.308080   0.115751  -6.149299  -1.671133  -0.997861
    10  C   -0.001286  -0.012745   0.666713  -0.143992  -3.055800  -0.934757
    11  C    0.154739   0.002471  -0.000664   0.553777  -1.030952  -0.242688
    12  H   -0.030018   0.001148  -0.001665   0.009557   0.141685   0.544824
    13  H   -0.000104  -0.001505  -0.004649   0.074556  -0.066436   0.016441
    14  H    0.000531  -0.008054  -0.000193  -0.036671  -0.049930   0.053014
    15  H    0.000857  -0.000354  -0.033525  -0.052267  -0.652630   0.131008
    16  H   -0.031454   0.000064   0.000006  -0.033297  -0.029642   0.108310
    17  H   -0.031410   0.000057   0.000005  -0.033308  -0.029909   0.109040
    18  H   -0.072689  -0.001283   0.000029   0.104897  -0.042353  -0.139370
    19  H   -0.007572   0.205888   0.000100   0.346109   0.006612   0.027277
               7          8          9         10         11         12
     1  O   -1.064081   0.013872  -0.009491  -0.001286   0.154739  -0.030018
     2  O    0.251145   0.009960   0.308080  -0.012745   0.002471   0.001148
     3  O    0.046324  -0.007582   0.115751   0.666713  -0.000664  -0.001665
     4  C   -5.827060  -0.295141  -6.149299  -0.143992   0.553777   0.009557
     5  C    3.875405   0.549596  -1.671133  -3.055800  -1.030952   0.141685
     6  C  -14.548661  -2.301633  -0.997861  -0.934757  -0.242688   0.544824
     7  C   24.904861  -1.535254   0.032750   0.800890  -0.042694  -0.001481
     8  C   -1.535254  14.069590  -3.064605  -1.727307  -0.073830   0.031161
     9  C    0.032750  -3.064605  17.165087  -0.188510   0.294844   0.014922
    10  C    0.800890  -1.727307  -0.188510  10.529464  -0.065046  -0.294814
    11  C   -0.042694  -0.073830   0.294844  -0.065046   5.835384  -0.048498
    12  H   -0.001481   0.031161   0.014922  -0.294814  -0.048498   0.569096
    13  H    0.028395   0.480210  -0.177065  -0.033985  -0.001926   0.001528
    14  H   -0.274964  -0.009861   0.639493  -0.010729   0.004277   0.001849
    15  H   -0.000353   0.079391   0.079284   0.540569   0.009788  -0.056176
    16  H   -0.073621   0.005550  -0.015750   0.008849   0.394694  -0.018948
    17  H   -0.074145   0.005531  -0.015735   0.008792   0.394772  -0.018934
    18  H    0.094886  -0.010598   0.021438  -0.000823   0.387499  -0.001284
    19  H    0.166215  -0.022645  -0.497686   0.002185  -0.003828  -0.000675
              13         14         15         16         17         18
     1  O   -0.000104   0.000531   0.000857  -0.031454  -0.031410  -0.072689
     2  O   -0.001505  -0.008054  -0.000354   0.000064   0.000057  -0.001283
     3  O   -0.004649  -0.000193  -0.033525   0.000006   0.000005   0.000029
     4  C    0.074556  -0.036671  -0.052267  -0.033297  -0.033308   0.104897
     5  C   -0.066436  -0.049930  -0.652630  -0.029642  -0.029909  -0.042353
     6  C    0.016441   0.053014   0.131008   0.108310   0.109040  -0.139370
     7  C    0.028395  -0.274964  -0.000353  -0.073621  -0.074145   0.094886
     8  C    0.480210  -0.009861   0.079391   0.005550   0.005531  -0.010598
     9  C   -0.177065   0.639493   0.079284  -0.015750  -0.015735   0.021438
    10  C   -0.033985  -0.010729   0.540569   0.008849   0.008792  -0.000823
    11  C   -0.001926   0.004277   0.009788   0.394694   0.394772   0.387499
    12  H    0.001528   0.001849  -0.056176  -0.018948  -0.018934  -0.001284
    13  H    0.390738  -0.006936   0.003503   0.000295   0.000295  -0.000272
    14  H   -0.006936   0.455840   0.000419  -0.000317  -0.000311   0.000232
    15  H    0.003503   0.000419   0.697744   0.000994   0.000991   0.000909
    16  H    0.000295  -0.000317   0.000994   0.568684  -0.075194  -0.022235
    17  H    0.000295  -0.000311   0.000991  -0.075194   0.568599  -0.022216
    18  H   -0.000272   0.000232   0.000909  -0.022235  -0.022216   0.411900
    19  H    0.001817  -0.006504   0.000189   0.000075   0.000069  -0.000005
              19
     1  O   -0.007572
     2  O    0.205888
     3  O    0.000100
     4  C    0.346109
     5  C    0.006612
     6  C    0.027277
     7  C    0.166215
     8  C   -0.022645
     9  C   -0.497686
    10  C    0.002185
    11  C   -0.003828
    12  H   -0.000675
    13  H    0.001817
    14  H   -0.006504
    15  H    0.000189
    16  H    0.000075
    17  H    0.000069
    18  H   -0.000005
    19  H    0.482935
 Mulliken charges:
               1
     1  O   -0.044732
     2  O   -0.195404
     3  O   -0.208406
     4  C   -0.601912
     5  C    0.953691
     6  C   -0.421007
     7  C   -0.758555
     8  C   -0.196406
     9  C    0.115486
    10  C   -0.087668
    11  C   -0.522119
    12  H    0.156721
    13  H    0.295100
    14  H    0.248815
    15  H    0.249662
    16  H    0.212940
    17  H    0.213010
    18  H    0.291339
    19  H    0.299444
 Sum of Mulliken charges =  -0.00000
 Mulliken charges with hydrogens summed into heavy atoms:
               1
     1  O   -0.044732
     2  O    0.104040
     3  O   -0.208406
     4  C   -0.601912
     5  C    0.953691
     6  C   -0.264286
     7  C   -0.758555
     8  C    0.098694
     9  C    0.364301
    10  C    0.161994
    11  C    0.195170
 Electronic spatial extent (au):  <R**2>=           1914.1306
 Charge=             -0.0000 electrons
 Dipole moment (field-independent basis, Debye):
    X=              2.6158    Y=             -0.3454    Z=             -0.0006  Tot=              2.6385
 Quadrupole moment (field-independent basis, Debye-Ang):
   XX=            -85.7078   YY=            -44.3850   ZZ=            -66.8397
   XY=             -1.6319   XZ=              0.0039   YZ=              0.0010
 Traceless Quadrupole moment (field-independent basis, Debye-Ang):
   XX=            -20.0636   YY=             21.2591   ZZ=             -1.1956
   XY=             -1.6319   XZ=              0.0039   YZ=              0.0010
 Octapole moment (field-independent basis, Debye-Ang**2):
  XXX=             72.3334  YYY=             22.9249  ZZZ=              0.0064  XYY=             21.4408
  XXY=             -5.8122  XXZ=             -0.0135  XZZ=              2.7855  YZZ=             -2.9066
  YYZ=              0.0081  XYZ=             -0.0008
 Hexadecapole moment (field-independent basis, Debye-Ang**3):
 XXXX=          -1932.2999 YYYY=           -662.4123 ZZZZ=            -78.2823 XXXY=            -47.4472
 XXXZ=              0.0464 YYYX=             37.5577 YYYZ=              0.0151 ZZZX=             -0.0077
 ZZZY=             -0.0037 XXYY=           -325.0360 XXZZ=           -273.2183 YYZZ=           -158.5744
 XXYZ=              0.0055 YYXZ=              0.0133 ZZXY=              3.3360
 N-N= 5.820483906856D+02 E-N=-2.414484194938D+03  KE= 5.330020784721D+02
 R6APFD:  NTU= -4 IXU= 1 FactS= 1.050
 Calling FoFJK, ICntrl=      2127 FMM=F ISym2X=0 I1Cent= 0 IOpClX= 0 NMat=1 NMatS=1 NMatT=0.
 ***** Axes restored to original set *****
 -------------------------------------------------------------------
 Center     Atomic                   Forces (Hartrees/Bohr)
 Number     Number              X              Y              Z
 -------------------------------------------------------------------
      1        8           0.004400248    0.003933974    0.000007913
      2        8          -0.003244793   -0.000056240   -0.000029232
      3        8           0.035931542   -0.023295165   -0.000024870
      4        6           0.001589303   -0.036573924   -0.000012026
      5        6           0.007500644    0.010602954    0.000000162
      6        6          -0.008237359    0.012979538   -0.000011633
      7        6           0.007335478    0.024297552    0.000071858
      8        6           0.006413143    0.009133498    0.000001483
      9        6          -0.013047858   -0.015903288   -0.000024331
     10        6          -0.048030998    0.023967120    0.000030754
     11        6           0.012640019    0.007358171   -0.000116621
     12        1           0.003775491   -0.000705779    0.000000301
     13        1          -0.003170243   -0.003942433    0.000000950
     14        1           0.002721292    0.001921285   -0.000000019
     15        1           0.000009000   -0.005236443   -0.000002130
     16        1          -0.005140377    0.000119239    0.000191506
     17        1          -0.005200632    0.000084360   -0.000083732
     18        1           0.000821406    0.005367987    0.000001776
     19        1           0.002934694   -0.014052405   -0.000002109
 -------------------------------------------------------------------
 Cartesian Forces:  Max     0.048030998 RMS     0.012052145

 GradGradGradGradGradGradGradGradGradGradGradGradGradGradGradGradGradGrad
 Berny optimization.
 FormGI is forming the generalized inverse of G from B-inverse, IUseBI=4.
 Internal  Forces:  Max     0.042690941 RMS     0.007865134
 Search for a local minimum.
 Step number   1 out of a maximum of   93
 All quantities printed in internal units (Hartrees-Bohrs-Radians)
 Mixed Optimization -- RFO/linear search
 Second derivative matrix not updated -- first step.
 ITU=  0
     Eigenvalues ---    0.01345   0.01371   0.01371   0.01915   0.02156
     Eigenvalues ---    0.02157   0.02157   0.02157   0.02157   0.02158
     Eigenvalues ---    0.02163   0.02164   0.02191   0.02192   0.09790
     Eigenvalues ---    0.10610   0.16000   0.16000   0.16000   0.16000
     Eigenvalues ---    0.16000   0.16000   0.16000   0.16000   0.22000
     Eigenvalues ---    0.22375   0.23491   0.24610   0.25000   0.25000
     Eigenvalues ---    0.25000   0.25000   0.33323   0.34185   0.34208
     Eigenvalues ---    0.34219   0.35167   0.35185   0.35395   0.37691
     Eigenvalues ---    0.41534   0.42266   0.42566   0.46475   0.46480
     Eigenvalues ---    0.46490   0.46498   0.52492   0.52503   0.52827
     Eigenvalues ---    0.89402
 RFO step:  Lambda=-1.39166281D-02 EMin= 1.34466009D-02
 Linear search not attempted -- first point.
 Iteration  1 RMS(Cart)=  0.11094473 RMS(Int)=  0.00316367
 Iteration  2 RMS(Cart)=  0.00549441 RMS(Int)=  0.00003916
 Iteration  3 RMS(Cart)=  0.00000272 RMS(Int)=  0.00003912
 Iteration  4 RMS(Cart)=  0.00000000 RMS(Int)=  0.00003912
 Variable       Old X    -DE/DX   Delta X   Delta X   Delta X     New X
                                 (Linear)    (Quad)   (Total)
    R1        2.57431  -0.00259   0.00000  -0.00480  -0.00480   2.56952
    R2        2.69521  -0.01316   0.00000  -0.03065  -0.03065   2.66456
    R3        2.57420  -0.00712   0.00000  -0.01320  -0.01320   2.56100
    R4        1.83816  -0.01435   0.00000  -0.02646  -0.02646   1.81169
    R5        2.33210  -0.04269   0.00000  -0.04702  -0.04702   2.28508
    R6        2.63574   0.00040   0.00000   0.00140   0.00141   2.63715
    R7        2.63580   0.00395   0.00000   0.00862   0.00864   2.64444
    R8        2.63602   0.00568   0.00000   0.01207   0.01206   2.64808
    R9        2.63599  -0.00255   0.00000  -0.00570  -0.00573   2.63026
   R10        2.74818   0.01281   0.00000   0.03276   0.03276   2.78094
   R11        2.05038   0.00040   0.00000   0.00108   0.00108   2.05146
   R12        2.63595   0.00283   0.00000   0.00570   0.00571   2.64166
   R13        2.63574  -0.00649   0.00000  -0.01412  -0.01414   2.62160
   R14        2.05404   0.00053   0.00000   0.00145   0.00145   2.05549
   R15        2.05376   0.00196   0.00000   0.00535   0.00535   2.05911
   R16        2.08488   0.00523   0.00000   0.01508   0.01508   2.09996
   R17        2.07019   0.00210   0.00000   0.00590   0.00590   2.07608
   R18        2.06980   0.00223   0.00000   0.00625   0.00625   2.07605
   R19        2.06962  -0.00126   0.00000  -0.00354  -0.00354   2.06607
    A1        2.04260   0.00897   0.00000   0.03400   0.03400   2.07660
    A2        1.90254   0.00082   0.00000   0.00472   0.00472   1.90726
    A3        2.08487   0.03158   0.00000   0.11896   0.11894   2.20380
    A4        2.10389  -0.02447   0.00000  -0.09339  -0.09341   2.01048
    A5        2.09443  -0.00711   0.00000  -0.02556  -0.02552   2.06891
    A6        2.09425   0.00099   0.00000   0.00311   0.00308   2.09733
    A7        2.09471  -0.00186   0.00000  -0.00672  -0.00670   2.08801
    A8        2.09422   0.00087   0.00000   0.00361   0.00363   2.09785
    A9        2.09443   0.00346   0.00000   0.01602   0.01603   2.11046
   A10        2.14920  -0.00565   0.00000  -0.03053  -0.03054   2.11866
   A11        2.03956   0.00218   0.00000   0.01451   0.01451   2.05406
   A12        2.10416  -0.01671   0.00000  -0.06331  -0.06333   2.04083
   A13        2.08461   0.01548   0.00000   0.05866   0.05865   2.14326
   A14        2.09442   0.00123   0.00000   0.00465   0.00468   2.09910
   A15        2.09450  -0.00314   0.00000  -0.01574  -0.01578   2.07872
   A16        2.11640  -0.00360   0.00000  -0.02184  -0.02182   2.09458
   A17        2.07228   0.00674   0.00000   0.03758   0.03760   2.10989
   A18        2.09434   0.00456   0.00000   0.01753   0.01752   2.11186
   A19        2.10760  -0.00505   0.00000  -0.02467  -0.02467   2.08293
   A20        2.08125   0.00049   0.00000   0.00714   0.00715   2.08840
   A21        2.14832   0.00511   0.00000   0.02186   0.02186   2.17018
   A22        2.09689  -0.00271   0.00000  -0.01179  -0.01179   2.08509
   A23        2.03798  -0.00241   0.00000  -0.01007  -0.01007   2.02791
   A24        1.94862  -0.00049   0.00000  -0.00549  -0.00562   1.94300
   A25        1.94870  -0.00050   0.00000  -0.00558  -0.00571   1.94299
   A26        1.86889  -0.00583   0.00000  -0.02844  -0.02847   1.84042
   A27        1.96272  -0.00306   0.00000  -0.02606  -0.02627   1.93645
   A28        1.86407   0.00514   0.00000   0.03470   0.03467   1.89874
   A29        1.86414   0.00514   0.00000   0.03470   0.03467   1.89881
    D1        0.00000   0.00000   0.00000   0.00010   0.00010   0.00010
    D2        3.14159   0.00000   0.00000   0.00009   0.00009  -3.14151
    D3        1.10687  -0.00244   0.00000  -0.02172  -0.02159   1.08529
    D4       -1.10706   0.00244   0.00000   0.02190   0.02176  -1.08530
    D5        3.14143   0.00001   0.00000   0.00012   0.00012   3.14155
    D6       -3.14129  -0.00001   0.00000  -0.00030  -0.00030  -3.14159
    D7       -0.00037   0.00001   0.00000   0.00026   0.00026  -0.00011
    D8        3.14159   0.00000   0.00000   0.00001   0.00000   3.14159
    D9        0.00003   0.00000   0.00000   0.00002   0.00002   0.00004
   D10       -0.00000   0.00000   0.00000   0.00002   0.00001   0.00001
   D11       -3.14157   0.00000   0.00000   0.00003   0.00003  -3.14153
   D12       -0.00051   0.00002   0.00000   0.00043   0.00042  -0.00010
   D13       -3.14143  -0.00001   0.00000  -0.00016  -0.00015  -3.14158
   D14        3.14108   0.00002   0.00000   0.00042   0.00040   3.14148
   D15        0.00017  -0.00001   0.00000  -0.00017  -0.00016   0.00000
   D16       -0.00008   0.00000   0.00000   0.00008   0.00008  -0.00000
   D17        3.14148   0.00000   0.00000   0.00007   0.00006   3.14155
   D18       -3.14151  -0.00000   0.00000   0.00000   0.00000  -3.14151
   D19        0.00005  -0.00000   0.00000  -0.00001  -0.00002   0.00004
   D20       -0.00000  -0.00000   0.00000  -0.00003  -0.00003  -0.00003
   D21       -3.14151  -0.00000   0.00000  -0.00008  -0.00008  -3.14159
   D22        3.14143   0.00000   0.00000   0.00005   0.00005   3.14148
   D23       -0.00008   0.00000   0.00000   0.00000   0.00000  -0.00008
   D24        3.14103   0.00001   0.00000   0.00029   0.00029   3.14132
   D25       -0.00046   0.00000   0.00000   0.00001   0.00001  -0.00045
   D26       -0.00040   0.00001   0.00000   0.00021   0.00021  -0.00019
   D27        3.14129  -0.00000   0.00000  -0.00007  -0.00007   3.14122
   D28       -3.14117  -0.00001   0.00000  -0.00032  -0.00034  -3.14151
   D29        0.00048  -0.00001   0.00000  -0.00034  -0.00035   0.00013
   D30       -0.00025   0.00001   0.00000   0.00021   0.00022  -0.00003
   D31        3.14140   0.00001   0.00000   0.00019   0.00020  -3.14158
   D32        0.00017  -0.00000   0.00000  -0.00012  -0.00012   0.00005
   D33       -3.14149  -0.00000   0.00000  -0.00010  -0.00010  -3.14159
   D34       -3.14151  -0.00000   0.00000  -0.00008  -0.00008  -3.14158
   D35        0.00003  -0.00000   0.00000  -0.00006  -0.00006  -0.00003
         Item               Value     Threshold  Converged?
 Maximum Force            0.042691     0.000450     NO 
 RMS     Force            0.007865     0.000300     NO 
 Maximum Displacement     0.344619     0.001800     NO 
 RMS     Displacement     0.110951     0.001200     NO 
 Predicted change in Energy=-7.293658D-03
 GradGradGradGradGradGradGradGradGradGradGradGradGradGradGradGradGradGrad

                          Input orientation:                          
 ---------------------------------------------------------------------
 Center     Atomic      Atomic             Coordinates (Angstroms)
 Number     Number       Type             X           Y           Z
 ---------------------------------------------------------------------
      1          8           0        2.248403   -0.959159    0.000121
      2          8           0        2.348976    1.630934    0.000228
      3          8           0       -3.753323   -0.255213    0.000157
      4          6           0        1.046778   -0.322793    0.000042
      5          6           0       -1.381206   -0.162358   -0.000096
      6          6           0       -0.209357   -0.930745   -0.000018
      7          6           0        1.113021    1.075015    0.000039
      8          6           0       -1.306304    1.227502   -0.000115
      9          6           0       -0.059593    1.836016   -0.000021
     10          6           0       -2.691102   -0.833037   -0.000053
     11          6           0        2.274865   -2.368934    0.000025
     12          1           0       -0.314611   -2.011215    0.000037
     13          1           0       -2.217553    1.821434   -0.000170
     14          1           0        0.009577    2.923454   -0.000033
     15          1           0       -2.673221   -1.944146   -0.000406
     16          1           0        1.804965   -2.777295   -0.905177
     17          1           0        1.804798   -2.777408    0.905068
     18          1           0        3.333965   -2.640331    0.000066
     19          1           0        2.266421    2.586080    0.000206
 ---------------------------------------------------------------------
                    Distance matrix (angstroms):
                    1          2          3          4          5
     1  O    0.000000
     2  O    2.592045   0.000000
     3  O    6.042868   6.387143   0.000000
     4  C    1.359729   2.347928   4.800577   0.000000
     5  C    3.716041   4.138859   2.373933   2.433280   0.000000
     6  C    2.457924   3.620396   3.607775   1.395522   1.401304
     7  C    2.329583   1.355223   5.044880   1.399377   2.784288
     8  C    4.173419   3.677475   2.861179   2.817873   1.391876
     9  C    3.624893   2.417284   4.244630   2.425802   2.395863
    10  C    4.941115   5.610128   1.209212   3.772545   1.471610
    11  C    1.410024   4.000555   6.388025   2.386397   4.270344
    12  H    2.770535   4.512199   3.861124   2.168905   2.134455
    13  H    5.260843   4.570501   2.582838   3.905582   2.152884
    14  H    4.481855   2.672713   4.925783   3.407918   3.384747
    15  H    5.019222   6.164711   2.004772   4.057978   2.200925
    16  H    2.078899   4.533011   6.170501   2.723756   4.220042
    17  H    2.078881   4.533028   6.170336   2.723748   4.220005
    18  H    2.001195   4.383367   7.477862   3.256102   5.326649
    19  H    3.545285   0.958707   6.656595   3.154214   4.567176
                    6          7          8          9         10
     6  C    0.000000
     7  C    2.402448   0.000000
     8  C    2.421017   2.424126   0.000000
     9  C    2.770812   1.397908   1.387291   0.000000
    10  C    2.483668   4.255821   2.482637   3.748157   0.000000
    11  C    2.870496   3.634648   5.075345   4.809502   5.198058
    12  H    1.085584   3.400433   3.387143   3.855674   2.652511
    13  H    3.406956   3.413191   1.087719   2.158010   2.696380
    14  H    3.860413   2.152747   2.146578   1.089635   4.626542
    15  H    2.664134   4.842620   3.453666   4.595724   1.111253
    16  H    2.878636   4.017274   5.151458   5.057521   4.981365
    17  H    2.878570   4.017313   5.151468   5.057552   4.981259
    18  H    3.934184   4.328554   6.040879   5.617287   6.290289
    19  H    4.300876   1.900960   3.822316   2.443959   6.022242
                   11         12         13         14         15
    11  C    0.000000
    12  H    2.614068   0.000000
    13  H    6.143372   4.279065   0.000000
    14  H    5.756814   4.945307   2.484865   0.000000
    15  H    4.966287   2.359564   3.793050   5.557961   0.000000
    16  H    1.098616   2.428763   6.176407   6.044935   4.644017
    17  H    1.098598   2.428586   6.176417   6.044987   4.644015
    18  H    1.093319   3.702417   7.122268   6.481301   6.047393
    19  H    4.955021   5.272271   4.548704   2.281922   6.702463
                   16         17         18         19
    16  H    0.000000
    17  H    1.810245   0.000000
    18  H    1.782152   1.782181   0.000000
    19  H    5.458795   5.458835   5.334324   0.000000
 Stoichiometry    C8H8O3
 Framework group  C1[X(C8H8O3)]
 Deg. of freedom    51
 Full point group                 C1      NOp   1
 Largest Abelian subgroup         C1      NOp   1
 Largest concise Abelian subgroup C1      NOp   1
                         Standard orientation:                         
 ---------------------------------------------------------------------
 Center     Atomic      Atomic             Coordinates (Angstroms)
 Number     Number       Type             X           Y           Z
 ---------------------------------------------------------------------
      1          8           0        2.256091   -0.767772    0.000090
      2          8           0        2.197707    1.823614    0.000197
      3          8           0       -3.777499   -0.433043    0.000126
      4          6           0        1.017718   -0.206260    0.000011
      5          6           0       -1.415535   -0.194957   -0.000127
      6          6           0       -0.198789   -0.890068   -0.000048
      7          6           0        0.998154    1.192980    0.000008
      8          6           0       -1.425969    1.196880   -0.000146
      9          6           0       -0.218903    1.880671   -0.000051
     10          6           0       -2.681856   -0.944669   -0.000084
     11          6           0        2.368920   -2.173275   -0.000005
     12          1           0       -0.237615   -1.974957    0.000006
     13          1           0       -2.371912    1.733839   -0.000201
     14          1           0       -0.216521    2.970304   -0.000064
     15          1           0       -2.595901   -2.052592   -0.000437
     16          1           0        1.924934   -2.609671   -0.905208
     17          1           0        1.924775   -2.609795    0.905038
     18          1           0        3.442663   -2.379240    0.000035
     19          1           0        2.056759    2.771904    0.000175
 ---------------------------------------------------------------------
 Rotational constants (GHZ):           1.8810923           0.7744405           0.5505620
 Standard basis: 6-311++G(d,p) (5D, 7F)
 There are   309 symmetry adapted cartesian basis functions of A   symmetry.
 There are   298 symmetry adapted basis functions of A   symmetry.
   298 basis functions,   468 primitive gaussians,   309 cartesian basis functions
    40 alpha electrons       40 beta electrons
       nuclear repulsion energy       581.7181487919 Hartrees.
 NAtoms=   19 NActive=   19 NUniq=   19 SFac= 1.00D+00 NAtFMM=   60 NAOKFM=F Big=F
 Integral buffers will be    131072 words long.
 Raffenetti 2 integral format.
 Two-electron integral symmetry is turned on.
 R6APFD:  NTU= -4 IXU= 1 FactS= 1.050
 Nuclear repulsion after empirical dispersion term =      581.7068280832 Hartrees.
 One-electron integrals computed using PRISM.
 NBasis=   298 RedAO= T EigKep=  1.88D-06  NBF=   298
 NBsUse=   297 1.00D-06 EigRej=  5.97D-07 NBFU=   297
 Initial guess from the checkpoint file:  "VILN0168.chk"
 B after Tr=     0.000000    0.000000   -0.000000
         Rot=    0.999906   -0.000002    0.000007   -0.013712 Ang=  -1.57 deg.
 ExpMin= 3.60D-02 ExpMax= 8.59D+03 ExpMxC= 1.30D+03 IAcc=3 IRadAn=         5 AccDes= 0.00D+00
 Harris functional with IExCor= 1009 and IRadAn=       5 diagonalized for initial guess.
 HarFok:  IExCor= 1009 AccDes= 0.00D+00 IRadAn=         5 IDoV= 1 UseB2=F ITyADJ=14
 ICtDFT=  3500011 ScaDFX=  1.000000  1.000000  1.000000  1.000000
 FoFCou: FMM=F IPFlag=           0 FMFlag=      100000 FMFlg1=           0
         NFxFlg=           0 DoJE=T BraDBF=F KetDBF=T FulRan=T
         wScrn=  0.000000 ICntrl=       500 IOpCl=  0 I1Cent=   200000004 NGrid=           0
         NMat0=    1 NMatS0=      1 NMatT0=    0 NMatD0=    1 NMtDS0=    0 NMtDT0=    0
 Petite list used in FoFCou.
 Requested convergence on RMS density matrix=1.00D-08 within  32 cycles.
 Requested convergence on MAX density matrix=1.00D-06.
 Requested convergence on             energy=1.00D-06.
 No special actions if energy rises.
 SCF Done:  E(RM08HX) =  -535.294364881     A.U. after   14 cycles
            NFock= 14  Conv=0.58D-08     -V/T= 2.0041
 QCSCF skips out because SCF is already converged.
 R6APFD:  NTU= -4 IXU= 1 FactS= 1.050
 Calling FoFJK, ICntrl=      2127 FMM=F ISym2X=0 I1Cent= 0 IOpClX= 0 NMat=1 NMatS=1 NMatT=0.
 ***** Axes restored to original set *****
 -------------------------------------------------------------------
 Center     Atomic                   Forces (Hartrees/Bohr)
 Number     Number              X              Y              Z
 -------------------------------------------------------------------
      1        8          -0.005211248    0.005548974   -0.000000048
      2        8          -0.003440607   -0.002340626   -0.000006219
      3        8           0.008163586   -0.003180538    0.000003622
      4        6           0.000994066   -0.013713784   -0.000002637
      5        6           0.004644959    0.002684724    0.000008233
      6        6           0.001866895    0.001296226   -0.000001450
      7        6           0.000911726    0.011370146    0.000012212
      8        6           0.001429374   -0.000017015    0.000003079
      9        6           0.000813942   -0.000807439   -0.000007009
     10        6          -0.012725141    0.004125244   -0.000019427
     11        6           0.001561561    0.002487739   -0.000011307
     12        1           0.002823520   -0.003337261   -0.000001395
     13        1          -0.000861613   -0.001227777    0.000000473
     14        1           0.001332867    0.000603471    0.000001086
     15        1           0.002197649   -0.002272611    0.000008264
     16        1          -0.002281258   -0.000686507    0.000645232
     17        1          -0.002280820   -0.000692594   -0.000636543
     18        1          -0.000801856   -0.000451836    0.000003598
     19        1           0.000862397    0.000611465    0.000000235
 -------------------------------------------------------------------
 Cartesian Forces:  Max     0.013713784 RMS     0.003612143

 GradGradGradGradGradGradGradGradGradGradGradGradGradGradGradGradGradGrad
 Berny optimization.
 Using GEDIIS/GDIIS optimizer.
 FormGI is forming the generalized inverse of G from B-inverse, IUseBI=4.
 Internal  Forces:  Max     0.013731306 RMS     0.002876972
 Search for a local minimum.
 Step number   2 out of a maximum of   93
 All quantities printed in internal units (Hartrees-Bohrs-Radians)
 Mixed Optimization -- RFO/linear search
 Update second derivatives using D2CorX and points    1    2
 DE= -6.77D-03 DEPred=-7.29D-03 R= 9.28D-01
 TightC=F SS=  1.41D+00  RLast= 2.20D-01 DXNew= 5.0454D-01 6.5951D-01
 Trust test= 9.28D-01 RLast= 2.20D-01 DXMaxT set to 5.05D-01
 ITU=  1  0
 Use linear search instead of GDIIS.
     Eigenvalues ---    0.01345   0.01371   0.01371   0.01916   0.02156
     Eigenvalues ---    0.02157   0.02157   0.02157   0.02157   0.02158
     Eigenvalues ---    0.02163   0.02164   0.02191   0.02192   0.09620
     Eigenvalues ---    0.10719   0.14992   0.16000   0.16000   0.16000
     Eigenvalues ---    0.16000   0.16000   0.16000   0.16186   0.21863
     Eigenvalues ---    0.22461   0.22666   0.23565   0.24614   0.25000
     Eigenvalues ---    0.25000   0.32586   0.33377   0.34160   0.34199
     Eigenvalues ---    0.34221   0.35163   0.35172   0.35692   0.37205
     Eigenvalues ---    0.41213   0.42522   0.42706   0.46255   0.46480
     Eigenvalues ---    0.46492   0.47969   0.51701   0.52558   0.55576
     Eigenvalues ---    0.84902
 RFO step:  Lambda=-2.02587412D-03 EMin= 1.34466017D-02
 Quartic linear search produced a step of -0.03635.
 Iteration  1 RMS(Cart)=  0.04558848 RMS(Int)=  0.00061743
 Iteration  2 RMS(Cart)=  0.00106208 RMS(Int)=  0.00003332
 Iteration  3 RMS(Cart)=  0.00000064 RMS(Int)=  0.00003332
 Variable       Old X    -DE/DX   Delta X   Delta X   Delta X     New X
                                 (Linear)    (Quad)   (Total)
    R1        2.56952  -0.01087   0.00017  -0.02074  -0.02057   2.54895
    R2        2.66456  -0.00072   0.00111  -0.00728  -0.00617   2.65839
    R3        2.56100  -0.00306   0.00048  -0.00800  -0.00752   2.55348
    R4        1.81169   0.00053   0.00096  -0.00387  -0.00291   1.80878
    R5        2.28508  -0.00869   0.00171  -0.01792  -0.01621   2.26887
    R6        2.63715  -0.00706  -0.00005  -0.01450  -0.01455   2.62260
    R7        2.64444   0.00750  -0.00031   0.01724   0.01692   2.66136
    R8        2.64808  -0.00151  -0.00044  -0.00128  -0.00173   2.64635
    R9        2.63026   0.00073   0.00021   0.00028   0.00049   2.63075
   R10        2.78094   0.00271  -0.00119   0.01289   0.01169   2.79263
   R11        2.05146   0.00305  -0.00004   0.00844   0.00840   2.05986
   R12        2.64166  -0.00271  -0.00021  -0.00417  -0.00437   2.63729
   R13        2.62160   0.00112   0.00051  -0.00009   0.00043   2.62203
   R14        2.05549   0.00005  -0.00005   0.00040   0.00035   2.05584
   R15        2.05911   0.00069  -0.00019   0.00285   0.00266   2.06177
   R16        2.09996   0.00231  -0.00055   0.00939   0.00884   2.10880
   R17        2.07608   0.00070  -0.00021   0.00304   0.00283   2.07891
   R18        2.07605   0.00071  -0.00023   0.00313   0.00291   2.07895
   R19        2.06607  -0.00067   0.00013  -0.00251  -0.00238   2.06369
    A1        2.07660  -0.01373  -0.00124  -0.04619  -0.04743   2.02917
    A2        1.90726   0.00166  -0.00017   0.01071   0.01054   1.91779
    A3        2.20380  -0.00665  -0.00432  -0.00360  -0.00793   2.19587
    A4        2.01048   0.00386   0.00340  -0.00256   0.00084   2.01132
    A5        2.06891   0.00279   0.00093   0.00616   0.00709   2.07599
    A6        2.09733   0.00135  -0.00011   0.00488   0.00476   2.10209
    A7        2.08801  -0.00181   0.00024  -0.00773  -0.00748   2.08052
    A8        2.09785   0.00046  -0.00013   0.00285   0.00272   2.10057
    A9        2.11046  -0.00183  -0.00058  -0.00597  -0.00656   2.10390
   A10        2.11866  -0.00230   0.00111  -0.02027  -0.01916   2.09950
   A11        2.05406   0.00413  -0.00053   0.02624   0.02572   2.07978
   A12        2.04083  -0.00079   0.00230  -0.01531  -0.01301   2.02782
   A13        2.14326   0.00220  -0.00213   0.01857   0.01643   2.15969
   A14        2.09910  -0.00141  -0.00017  -0.00326  -0.00342   2.09568
   A15        2.07872   0.00102   0.00057   0.00181   0.00238   2.08110
   A16        2.09458  -0.00205   0.00079  -0.01554  -0.01475   2.07983
   A17        2.10989   0.00103  -0.00137   0.01374   0.01237   2.12226
   A18        2.11186  -0.00192  -0.00064  -0.00362  -0.00425   2.10761
   A19        2.08293  -0.00037   0.00090  -0.00905  -0.00816   2.07477
   A20        2.08840   0.00229  -0.00026   0.01267   0.01240   2.10080
   A21        2.17018  -0.00018  -0.00079   0.00326   0.00246   2.17264
   A22        2.08509   0.00236   0.00043   0.01169   0.01211   2.09721
   A23        2.02791  -0.00218   0.00037  -0.01494  -0.01457   2.01334
   A24        1.94300  -0.00029   0.00020  -0.00515  -0.00507   1.93793
   A25        1.94299  -0.00029   0.00021  -0.00516  -0.00507   1.93792
   A26        1.84042   0.00203   0.00103   0.01123   0.01220   1.85262
   A27        1.93645  -0.00260   0.00095  -0.02796  -0.02719   1.90927
   A28        1.89874   0.00073  -0.00126   0.01523   0.01391   1.91264
   A29        1.89881   0.00072  -0.00126   0.01517   0.01385   1.91266
    D1        0.00010  -0.00000  -0.00000  -0.00004  -0.00004   0.00006
    D2       -3.14151  -0.00000  -0.00000  -0.00002  -0.00003  -3.14153
    D3        1.08529  -0.00191   0.00078  -0.02206  -0.02118   1.06410
    D4       -1.08530   0.00190  -0.00079   0.02202   0.02114  -1.06416
    D5        3.14155   0.00000  -0.00000   0.00001   0.00001   3.14156
    D6        3.14159  -0.00000   0.00001  -0.00013  -0.00011   3.14148
    D7       -0.00011   0.00000  -0.00001   0.00012   0.00012   0.00000
    D8        3.14159   0.00000  -0.00000   0.00000   0.00000  -3.14159
    D9        0.00004  -0.00000  -0.00000  -0.00004  -0.00004   0.00001
   D10        0.00001  -0.00000  -0.00000  -0.00001  -0.00001   0.00000
   D11       -3.14153  -0.00000  -0.00000  -0.00005  -0.00005  -3.14159
   D12       -0.00010   0.00000  -0.00002   0.00018   0.00017   0.00007
   D13       -3.14158  -0.00000   0.00001  -0.00006  -0.00005   3.14155
   D14        3.14148   0.00000  -0.00001   0.00020   0.00018  -3.14152
   D15        0.00000  -0.00000   0.00001  -0.00005  -0.00004  -0.00004
   D16       -0.00000   0.00000  -0.00000   0.00002   0.00002   0.00002
   D17        3.14155   0.00000  -0.00000   0.00006   0.00006  -3.14158
   D18       -3.14151  -0.00000  -0.00000  -0.00006  -0.00006  -3.14157
   D19        0.00004  -0.00000   0.00000  -0.00002  -0.00002   0.00002
   D20       -0.00003   0.00000   0.00000   0.00003   0.00003   0.00000
   D21       -3.14159  -0.00000   0.00000  -0.00003  -0.00003   3.14157
   D22        3.14148   0.00000  -0.00000   0.00011   0.00011   3.14159
   D23       -0.00008   0.00000  -0.00000   0.00005   0.00005  -0.00003
   D24        3.14132  -0.00000  -0.00001  -0.00019  -0.00020   3.14112
   D25       -0.00045   0.00001  -0.00000   0.00056   0.00056   0.00011
   D26       -0.00019  -0.00001  -0.00001  -0.00027  -0.00027  -0.00046
   D27        3.14122   0.00001   0.00000   0.00049   0.00049  -3.14147
   D28       -3.14151  -0.00000   0.00001  -0.00016  -0.00015   3.14153
   D29        0.00013  -0.00000   0.00001  -0.00019  -0.00018  -0.00005
   D30       -0.00003   0.00000  -0.00001   0.00010   0.00009   0.00006
   D31       -3.14158   0.00000  -0.00001   0.00007   0.00006  -3.14152
   D32        0.00005  -0.00000   0.00000  -0.00009  -0.00008  -0.00004
   D33       -3.14159  -0.00000   0.00000  -0.00006  -0.00005   3.14154
   D34       -3.14158  -0.00000   0.00000  -0.00003  -0.00003   3.14157
   D35       -0.00003   0.00000   0.00000   0.00000   0.00000  -0.00003
         Item               Value     Threshold  Converged?
 Maximum Force            0.013731     0.000450     NO 
 RMS     Force            0.002877     0.000300     NO 
 Maximum Displacement     0.174401     0.001800     NO 
 RMS     Displacement     0.046204     0.001200     NO 
 Predicted change in Energy=-1.029669D-03
 GradGradGradGradGradGradGradGradGradGradGradGradGradGradGradGradGradGrad

                          Input orientation:                          
 ---------------------------------------------------------------------
 Center     Atomic      Atomic             Coordinates (Angstroms)
 Number     Number       Type             X           Y           Z
 ---------------------------------------------------------------------
      1          8           0        2.255446   -0.939914    0.000158
      2          8           0        2.358032    1.637822    0.000188
      3          8           0       -3.726049   -0.303100    0.000145
      4          6           0        1.061029   -0.313212    0.000078
      5          6           0       -1.356040   -0.170663   -0.000135
      6          6           0       -0.180979   -0.932453   -0.000060
      7          6           0        1.121126    1.093838    0.000142
      8          6           0       -1.294968    1.220132   -0.000094
      9          6           0       -0.055655    1.844084    0.000021
     10          6           0       -2.662797   -0.860789   -0.000249
     11          6           0        2.220520   -2.346240    0.000023
     12          1           0       -0.253078   -2.020095   -0.000106
     13          1           0       -2.220771    1.791469   -0.000172
     14          1           0        0.013677    2.932920    0.000007
     15          1           0       -2.614440   -1.975672   -0.000153
     16          1           0        1.712677   -2.728536   -0.897860
     17          1           0        1.712510   -2.728706    0.897766
     18          1           0        3.261632   -2.675902    0.000074
     19          1           0        2.293628    2.592819    0.000126
 ---------------------------------------------------------------------
                    Distance matrix (angstroms):
                    1          2          3          4          5
     1  O    0.000000
     2  O    2.579776   0.000000
     3  O    6.015298   6.386174   0.000000
     4  C    1.348846   2.342808   4.787088   0.000000
     5  C    3.692503   4.130974   2.373706   2.421269   0.000000
     6  C    2.436437   3.612879   3.600500   1.387820   1.400390
     7  C    2.328697   1.351242   5.044456   1.408332   2.781243
     8  C    4.155867   3.676802   2.868866   2.811026   1.392135
     9  C    3.618264   2.422484   4.252316   2.429179   2.397959
    10  C    4.918879   5.608189   1.200633   3.763871   1.477799
    11  C    1.406760   3.986435   6.287773   2.340432   4.186277
    12  H    2.731205   4.494247   3.874222   2.154142   2.153352
    13  H    5.243755   4.581380   2.579357   3.898704   2.144230
    14  H    4.474860   2.678298   4.945440   3.410912   3.392396
    15  H    4.978813   6.146772   2.008275   4.033961   2.200370
    16  H    2.073693   4.504226   6.022366   2.657955   4.094588
    17  H    2.073706   4.504322   6.022226   2.657985   4.094607
    18  H    2.006506   4.407347   7.379558   3.228770   5.253486
    19  H    3.532939   0.957166   6.680034   3.156630   4.577871
                    6          7          8          9         10
     6  C    0.000000
     7  C    2.408596   0.000000
     8  C    2.423756   2.419392   0.000000
     9  C    2.779364   1.395594   1.387520   0.000000
    10  C    2.482852   4.258948   2.490219   3.756798   0.000000
    11  C    2.786753   3.611482   5.007760   4.768626   5.104248
    12  H    1.090029   3.403677   3.403617   3.869219   2.674086
    13  H    3.403014   3.413936   1.087905   2.165755   2.688841
    14  H    3.870272   2.146781   2.155503   1.091041   4.642817
    15  H    2.647647   4.834908   3.457480   4.597599   1.115930
    16  H    2.760053   3.970753   5.044193   4.984179   4.841380
    17  H    2.760057   3.970807   5.044244   4.984251   4.841369
    18  H    3.858910   4.335055   5.995138   5.606663   6.196249
    19  H    4.307113   1.903078   3.842172   2.465712   6.040990
                   11         12         13         14         15
    11  C    0.000000
    12  H    2.495006   0.000000
    13  H    6.070066   4.289504   0.000000
    14  H    5.721861   4.960194   2.509117   0.000000
    15  H    4.849140   2.361780   3.787655   5.567879   0.000000
    16  H    1.100112   2.274213   6.058738   5.978700   4.482926
    17  H    1.100136   2.274167   6.058793   5.978797   4.482835
    18  H    1.092059   3.575370   7.072068   6.481365   5.917647
    19  H    4.939600   5.269221   4.584970   2.305177   6.705239
                   16         17         18         19
    16  H    0.000000
    17  H    1.795626   0.000000
    18  H    1.791178   1.791206   0.000000
    19  H    5.427771   5.427899   5.356907   0.000000
 Stoichiometry    C8H8O3
 Framework group  C1[X(C8H8O3)]
 Deg. of freedom    51
 Full point group                 C1      NOp   1
 Largest Abelian subgroup         C1      NOp   1
 Largest concise Abelian subgroup C1      NOp   1
                         Standard orientation:                         
 ---------------------------------------------------------------------
 Center     Atomic      Atomic             Coordinates (Angstroms)
 Number     Number       Type             X           Y           Z
 ---------------------------------------------------------------------
      1          8           0        2.236762   -0.797762    0.000134
      2          8           0        2.238782    1.782014    0.000163
      3          8           0       -3.765011   -0.394608    0.000120
      4          6           0        1.018822   -0.218098    0.000053
      5          6           0       -1.401967   -0.169881   -0.000159
      6          6           0       -0.198102   -0.885286   -0.000085
      7          6           0        1.024022    1.190225    0.000118
      8          6           0       -1.395158    1.222237   -0.000119
      9          6           0       -0.181111    1.894027   -0.000003
     10          6           0       -2.680827   -0.910424   -0.000273
     11          6           0        2.256685   -2.204381   -0.000002
     12          1           0       -0.227747   -1.974911   -0.000130
     13          1           0       -2.342530    1.757050   -0.000197
     14          1           0       -0.154277    2.984738   -0.000017
     15          1           0       -2.589046   -2.022574   -0.000178
     16          1           0        1.764131   -2.606182   -0.897885
     17          1           0        1.763970   -2.606359    0.897742
     18          1           0        3.309857   -2.493206    0.000050
     19          1           0        2.137198    2.733775    0.000102
 ---------------------------------------------------------------------
 Rotational constants (GHZ):           1.8796853           0.7856794           0.5560628
 Standard basis: 6-311++G(d,p) (5D, 7F)
 There are   309 symmetry adapted cartesian basis functions of A   symmetry.
 There are   298 symmetry adapted basis functions of A   symmetry.
   298 basis functions,   468 primitive gaussians,   309 cartesian basis functions
    40 alpha electrons       40 beta electrons
       nuclear repulsion energy       583.5870571909 Hartrees.
 NAtoms=   19 NActive=   19 NUniq=   19 SFac= 1.00D+00 NAtFMM=   60 NAOKFM=F Big=F
 Integral buffers will be    131072 words long.
 Raffenetti 2 integral format.
 Two-electron integral symmetry is turned on.
 R6APFD:  NTU= -4 IXU= 1 FactS= 1.050
 Nuclear repulsion after empirical dispersion term =      583.5757708826 Hartrees.
 One-electron integrals computed using PRISM.
 NBasis=   298 RedAO= T EigKep=  1.73D-06  NBF=   298
 NBsUse=   297 1.00D-06 EigRej=  5.94D-07 NBFU=   297
 Initial guess from the checkpoint file:  "VILN0168.chk"
 B after Tr=    -0.000000    0.000000    0.000000
         Rot=    0.999958   -0.000005    0.000005    0.009133 Ang=  -1.05 deg.
 ExpMin= 3.60D-02 ExpMax= 8.59D+03 ExpMxC= 1.30D+03 IAcc=3 IRadAn=         5 AccDes= 0.00D+00
 Harris functional with IExCor= 1009 and IRadAn=       5 diagonalized for initial guess.
 HarFok:  IExCor= 1009 AccDes= 0.00D+00 IRadAn=         5 IDoV= 1 UseB2=F ITyADJ=14
 ICtDFT=  3500011 ScaDFX=  1.000000  1.000000  1.000000  1.000000
 FoFCou: FMM=F IPFlag=           0 FMFlag=      100000 FMFlg1=           0
         NFxFlg=           0 DoJE=T BraDBF=F KetDBF=T FulRan=T
         wScrn=  0.000000 ICntrl=       500 IOpCl=  0 I1Cent=   200000004 NGrid=           0
         NMat0=    1 NMatS0=      1 NMatT0=    0 NMatD0=    1 NMtDS0=    0 NMtDT0=    0
 Petite list used in FoFCou.
 Requested convergence on RMS density matrix=1.00D-08 within  32 cycles.
 Requested convergence on MAX density matrix=1.00D-06.
 Requested convergence on             energy=1.00D-06.
 No special actions if energy rises.
 SCF Done:  E(RM08HX) =  -535.295200581     A.U. after   13 cycles
            NFock= 13  Conv=0.97D-08     -V/T= 2.0040
 QCSCF skips out because SCF is already converged.
 R6APFD:  NTU= -4 IXU= 1 FactS= 1.050
 Calling FoFJK, ICntrl=      2127 FMM=F ISym2X=0 I1Cent= 0 IOpClX= 0 NMat=1 NMatS=1 NMatT=0.
 ***** Axes restored to original set *****
 -------------------------------------------------------------------
 Center     Atomic                   Forces (Hartrees/Bohr)
 Number     Number              X              Y              Z
 -------------------------------------------------------------------
      1        8          -0.000748383    0.000014197   -0.000001037
      2        8          -0.001267413   -0.001556034    0.000003801
      3        8          -0.003159222    0.002148760   -0.000024487
      4        6           0.000266963    0.001326058    0.000004798
      5        6           0.000608765    0.001548377   -0.000019187
      6        6          -0.000638321   -0.002051092   -0.000000791
      7        6          -0.001526907    0.002350661   -0.000011980
      8        6          -0.001001523   -0.003100850   -0.000000774
      9        6           0.003437609    0.001483531    0.000003244
     10        6           0.001676765   -0.001584567    0.000067079
     11        6           0.001795161   -0.001550618    0.000011139
     12        1          -0.000851826    0.001016275   -0.000001004
     13        1          -0.000081195   -0.000030755    0.000000087
     14        1           0.000001616   -0.000250050    0.000001294
     15        1           0.001060126   -0.000242872   -0.000022235
     16        1           0.000413192   -0.000527289    0.000015754
     17        1           0.000421391   -0.000523522   -0.000027237
     18        1          -0.000532702   -0.000670365    0.000001124
     19        1           0.000125903    0.002200154    0.000000412
 -------------------------------------------------------------------
 Cartesian Forces:  Max     0.003437609 RMS     0.001194648

 GradGradGradGradGradGradGradGradGradGradGradGradGradGradGradGradGradGrad
 Berny optimization.
 Using GEDIIS/GDIIS optimizer.
 FormGI is forming the generalized inverse of G from B-inverse, IUseBI=4.
 Internal  Forces:  Max     0.005717654 RMS     0.001127038
 Search for a local minimum.
 Step number   3 out of a maximum of   93
 All quantities printed in internal units (Hartrees-Bohrs-Radians)
 Mixed Optimization -- RFO/linear search
 Update second derivatives using D2CorX and points    1    2    3
 DE= -8.36D-04 DEPred=-1.03D-03 R= 8.12D-01
 TightC=F SS=  1.41D+00  RLast= 9.44D-02 DXNew= 8.4853D-01 2.8316D-01
 Trust test= 8.12D-01 RLast= 9.44D-02 DXMaxT set to 5.05D-01
 ITU=  1  1  0
 Use linear search instead of GDIIS.
     Eigenvalues ---    0.01345   0.01371   0.01371   0.01917   0.02156
     Eigenvalues ---    0.02157   0.02157   0.02157   0.02157   0.02158
     Eigenvalues ---    0.02163   0.02164   0.02191   0.02192   0.09635
     Eigenvalues ---    0.10618   0.14366   0.16000   0.16000   0.16000
     Eigenvalues ---    0.16000   0.16000   0.16096   0.16429   0.21892
     Eigenvalues ---    0.22344   0.23316   0.24534   0.24761   0.25000
     Eigenvalues ---    0.26148   0.32627   0.33687   0.34163   0.34197
     Eigenvalues ---    0.34220   0.35163   0.35183   0.36309   0.36817
     Eigenvalues ---    0.41618   0.42544   0.43006   0.45947   0.46482
     Eigenvalues ---    0.46854   0.47561   0.52083   0.53558   0.57824
     Eigenvalues ---    0.87931
 RFO step:  Lambda=-1.62755442D-04 EMin= 1.34466017D-02
 Quartic linear search produced a step of -0.16467.
 Iteration  1 RMS(Cart)=  0.01055515 RMS(Int)=  0.00003660
 Iteration  2 RMS(Cart)=  0.00005411 RMS(Int)=  0.00000451
 Iteration  3 RMS(Cart)=  0.00000000 RMS(Int)=  0.00000451
 Variable       Old X    -DE/DX   Delta X   Delta X   Delta X     New X
                                 (Linear)    (Quad)   (Total)
    R1        2.54895   0.00270   0.00339  -0.00038   0.00300   2.55196
    R2        2.65839   0.00323   0.00102   0.00520   0.00621   2.66460
    R3        2.55348  -0.00078   0.00124  -0.00276  -0.00152   2.55196
    R4        1.80878   0.00218   0.00048   0.00296   0.00344   1.81222
    R5        2.26887   0.00380   0.00267   0.00033   0.00300   2.27187
    R6        2.62260   0.00156   0.00240  -0.00039   0.00201   2.62461
    R7        2.66136   0.00280  -0.00279   0.00879   0.00600   2.66736
    R8        2.64635  -0.00006   0.00028  -0.00065  -0.00036   2.64599
    R9        2.63075  -0.00172  -0.00008  -0.00303  -0.00311   2.62765
   R10        2.79263   0.00022  -0.00193   0.00280   0.00087   2.79351
   R11        2.05986  -0.00096  -0.00138  -0.00030  -0.00168   2.05817
   R12        2.63729  -0.00209   0.00072  -0.00465  -0.00393   2.63336
   R13        2.62203   0.00159  -0.00007   0.00284   0.00277   2.62480
   R14        2.05584   0.00005  -0.00006   0.00019   0.00013   2.05597
   R15        2.06177  -0.00025  -0.00044  -0.00002  -0.00046   2.06131
   R16        2.10880   0.00029  -0.00146   0.00256   0.00110   2.10990
   R17        2.07891  -0.00002  -0.00047   0.00054   0.00007   2.07899
   R18        2.07895  -0.00003  -0.00048   0.00052   0.00004   2.07900
   R19        2.06369  -0.00031   0.00039  -0.00123  -0.00084   2.06285
    A1        2.02917   0.00572   0.00781   0.00727   0.01508   2.04426
    A2        1.91779   0.00050  -0.00173   0.00499   0.00325   1.92104
    A3        2.19587   0.00037   0.00131  -0.00211  -0.00081   2.19507
    A4        2.01132   0.00044  -0.00014   0.00211   0.00197   2.01329
    A5        2.07599  -0.00081  -0.00117  -0.00000  -0.00117   2.07483
    A6        2.10209   0.00060  -0.00078   0.00262   0.00184   2.10393
    A7        2.08052  -0.00022   0.00123  -0.00218  -0.00095   2.07957
    A8        2.10057  -0.00038  -0.00045  -0.00044  -0.00089   2.09968
    A9        2.10390  -0.00050   0.00108  -0.00314  -0.00205   2.10185
   A10        2.09950   0.00119   0.00316   0.00122   0.00438   2.10388
   A11        2.07978  -0.00070  -0.00424   0.00191  -0.00232   2.07746
   A12        2.02782   0.00077   0.00214  -0.00015   0.00199   2.02981
   A13        2.15969  -0.00139  -0.00271  -0.00151  -0.00422   2.15548
   A14        2.09568   0.00062   0.00056   0.00166   0.00222   2.09790
   A15        2.08110   0.00073  -0.00039   0.00265   0.00225   2.08335
[...]
 45229,0.129283,-0.0004624,0.0003189\PG=C01 [X(C8H8O3)]\NImag=0\\0.4207
 4622,-0.11285753,0.50784251,0.00001493,0.00000855,0.07023241,0.0120258
 5,-0.00138228,0.00000073,0.41122205,-0.00031828,0.00003883,0.00000003,
 0.06442782,0.70033572,0.00000071,0.00000002,-0.00377820,0.00002051,0.0
 0000759,0.02807105,-0.00331388,0.00217122,-0.00000009,-0.00661429,-0.0
 0371315,-0.00000045,0.70074126,-0.00075733,0.00044857,-0.00000002,0.00
 107530,0.00075502,0.00000006,-0.32862774,0.25983116,-0.00000004,0.0000
 0009,-0.00047351,-0.00000018,-0.00000010,0.00012670,0.00000152,0.00000
 143,0.02464699,-0.27523353,0.09693258,-0.00000897,-0.02564916,-0.05797
 651,-0.00000287,-0.00123174,-0.00074301,-0.00000002,0.73368289,0.06152
 402,-0.14735641,0.00000019,-0.02037939,-0.03505806,-0.00000205,-0.0050
 1694,0.00139348,-0.00000017,0.01643740,0.69860199,-0.00001040,0.000002
 47,-0.04545350,-0.00000210,-0.00000365,0.01047457,-0.00000021,0.000000
 03,-0.00128033,0.00002771,0.00001317,0.14972353,-0.00124767,0.00105263
 ,-0.00000045,-0.01324286,-0.00790651,-0.00000086,-0.06630163,0.0048181
 2,-0.00000223,-0.05674408,-0.02777475,-0.00000336,0.65142733,-0.001680
 90,-0.00694105,-0.00000016,-0.00692042,0.00133624,-0.00000021,0.007747
 99,0.03108204,0.00000030,0.02147361,0.06880402,0.00000229,-0.02511013,
 0.71689643,-0.00000053,-0.00000028,0.00723674,-0.00000064,-0.00000029,
 -0.00127724,-0.00000166,0.00000033,0.01865880,-0.00000228,0.00000035,0
 .00324425,0.00002269,0.00001318,0.11730605,-0.05692334,-0.00613259,-0.
 00000292,0.00973835,0.01234227,0.00000067,0.00456687,-0.00564190,-0.00
 000005,-0.29308962,-0.04854157,-0.00001168,-0.25603257,0.07183236,-0.0
 0000801,0.70379664,0.01979243,0.01630495,0.00000092,0.00532440,-0.0054
 0097,0.00000016,-0.00963002,-0.00095232,-0.00000019,-0.12191517,-0.192
 51244,-0.00000879,0.12579678,-0.18614655,0.00000231,0.01043840,0.73293
 700,-0.00000266,-0.00000015,0.00754047,0.00000040,0.00000033,0.0038850
 7,-0.00000009,-0.00000029,0.00296602,-0.00001342,-0.00000566,-0.059800
 14,-0.00000671,-0.00000003,-0.04973030,0.00002691,0.00001484,0.1199995
 7,-0.02200137,0.05771382,-0.00000020,-0.29425605,-0.09907440,-0.000013
 64,0.00614060,-0.00243338,0.00000009,-0.09511643,-0.04706240,-0.000002
 11,-0.00052397,0.03459598,0.00000082,0.01999722,-0.03594205,0.00000010
 ,0.73044259,0.02224277,-0.04088486,0.00000011,-0.05503676,-0.14444952,
 -0.00000395,0.00366819,0.00072376,0.00000014,0.03480373,-0.28196250,-0
 .00000271,0.03050309,-0.06335025,0.00000008,-0.08652424,-0.00763514,-0
 .00000408,-0.00925053,0.71152492,-0.00000097,0.00000165,0.00907526,-0.
 00001371,-0.00000653,-0.04636980,0.00000042,-0.00000009,-0.00005046,-0
 .00000033,-0.00000639,-0.07318551,0.00000089,0.00000021,-0.00372046,-0
 .00000111,-0.00000185,0.00175412,0.00002644,0.00001113,0.15337462,-0.0
 0937231,0.00644654,-0.00000036,0.00462648,0.00135280,-0.00000016,0.002
 37824,-0.00133220,-0.00000002,-0.00972011,-0.03351844,-0.00000108,-0.1
 1734756,0.02929323,-0.00000235,0.03225854,0.02289427,0.00000183,-0.062
 32621,0.03663712,-0.00000200,0.73986127,-0.00196434,0.00367480,-0.0000
 0014,0.00806679,-0.00609675,-0.00000009,0.01139753,-0.00691100,0.00000
 001,-0.03196815,-0.05712796,-0.00000266,-0.02495312,-0.34145973,-0.000
 00839,0.07065875,-0.03498573,0.00000248,-0.02070643,0.07881860,0.00000
 091,-0.02517590,0.69776180,-0.00000041,0.00000040,-0.00139624,-0.00000
 004,-0.00000021,0.00817073,0.00000035,-0.00000004,-0.00055353,-0.00000
 113,-0.00000276,-0.00127508,-0.00000342,-0.00000570,-0.05750705,0.0000
 0291,0.00000016,0.00341177,-0.00000327,0.00000343,0.00000836,0.0000275
 8,0.00001248,0.12885446,0.00924354,-0.01128115,0.00000021,-0.06338256,
 0.01382251,-0.00000294,-0.00440521,0.00265873,0.,0.03242408,0.07659609
 ,0.00000304,0.01527769,-0.08541042,-0.00000140,-0.06263329,0.01098493,
 -0.00000262,-0.25850623,0.05183564,-0.00000773,-0.30827513,-0.05787694
 ,-0.00001288,0.70035184,-0.00654361,-0.00417209,-0.00000058,-0.0207565
 6,0.01567805,-0.00000075,0.00112313,0.00253216,0.00000015,0.03044390,-
 0.01681655,0.00000100,-0.02890502,-0.02149136,-0.00000207,-0.00416359,
 -0.00426292,-0.00000027,0.13646695,-0.21101418,0.00000278,-0.12869123,
 -0.17351266,-0.00000877,0.02189442,0.73678551,0.00000021,-0.00000069,0
 .00369996,-0.00000390,0.00000074,0.00942036,-0.00000024,0.00000023,-0.
 00061452,0.00000201,0.00000303,0.00217564,-0.00000028,-0.00000474,0.00
 645875,-0.00000293,0.00000050,-0.00073681,-0.00000571,-0.00000105,-0.0
 5904990,-0.00001447,-0.00000547,-0.05368854,0.00002670,0.00001528,0.11
 726588,0.00223003,-0.00387197,-0.00000002,0.01113267,0.00549083,0.0000
 0073,-0.62282677,0.28573645,0.00000060,-0.00074480,0.01123973,-0.00000
 004,-0.16631999,-0.04551202,-0.00000647,-0.04143002,-0.00448001,-0.000
 00185,-0.01265635,-0.00164268,-0.00000065,-0.00530622,-0.02735390,-0.0
 0000082,0.01274959,0.00138479,0.00000049,0.88021530,0.00381777,-0.0021
 8122,0.00000009,0.00430888,0.00249395,0.00000030,0.29210107,-0.2676275
 5,-0.00000156,0.00577467,0.00262469,0.00000022,-0.07535884,-0.15784272
 ,-0.00000557,0.01483989,0.01419423,0.00000114,-0.00170150,-0.00555660,
 -0.00000021,-0.03548611,-0.01386997,-0.00000208,0.00114945,-0.00850416
 ,-0.00000027,-0.19970637,0.69909273,0.00000005,-0.00000021,0.00093603,
 0.00000055,0.00000027,-0.00059633,0.,-0.00000112,-0.06375888,-0.000000
 17,0.00000042,0.00633149,-0.00000603,-0.00000340,-0.06967568,-0.000001
 32,-0.00000009,-0.00218615,-0.00000041,-0.00000013,-0.00086408,-0.0000
 0087,-0.00000109,0.00122950,0.00000015,-0.00000033,0.00691770,0.000008
 30,0.00000689,0.18887519,-0.08679472,-0.03248498,-0.00000261,0.0005377
 9,-0.00082006,0.00000003,0.00010425,-0.00008264,0.,-0.00695464,0.04612
 665,0.00000143,0.00061090,0.00047204,0.00000006,-0.00249389,0.00368394
 ,0.00000008,-0.00667461,-0.00051091,-0.00000040,0.00027928,0.00043977,
 0.,-0.00008201,0.00135366,-0.00000007,0.00010334,0.00003837,0.,0.62199
 026,0.00127428,-0.24619195,-0.00000624,0.00205951,0.00117891,0.0000001
 2,-0.00167209,-0.00053290,-0.00000005,0.02151448,-0.03588700,-0.000000
 11,-0.00224561,-0.00187232,-0.00000016,-0.00447289,0.00614190,-0.00000
 002,-0.00320878,0.00397271,-0.00000021,-0.00225018,0.00036695,-0.00000
 013,0.00129009,-0.00124717,0.00000003,0.00190999,0.00232906,0.00000011
 ,-0.01592704,0.47849017,-0.00000127,-0.00000841,-0.06079861,0.00000008
 ,0.00000002,-0.00023599,-0.00000005,-0.00000002,0.00004787,0.00000059,
 0.00000139,-0.00292676,0.00000002,-0.00000011,-0.00057570,-0.00000031,
 0.00000041,-0.00050700,-0.00000054,0.,0.00169369,-0.00000004,0.0000000
 7,0.00071002,-0.00000008,0.00000005,0.00125964,0.00000006,0.00000007,0
 .00001042,0.00000198,-0.00000445,0.56345814,0.00129795,0.00253696,0.00
 000029,0.00003267,-0.00180200,0.,0.00111398,-0.00150201,-0.00000007,0.
 00611290,-0.02790051,-0.00000057,0.00815288,0.02415543,0.00000086,-0.0
 6030884,-0.02107723,-0.00000168,-0.00470116,-0.00100216,-0.00000057,-0
 .00445507,0.00292940,-0.00000041,-0.00149229,-0.00024532,-0.00000002,-
 0.00015758,0.00372078,0.00000028,-0.00269202,-0.00080926,-0.00000012,0
 .06077710,0.00092109,-0.00106354,0.00000008,-0.00010338,-0.00084393,0.
 ,0.00099840,0.00016993,0.,0.00096848,-0.00953937,-0.00000027,-0.001047
 07,-0.01414866,-0.00000038,-0.02379701,-0.33310373,-0.00000802,-0.0017
 5083,0.00066055,-0.00000023,0.00358100,0.00043140,0.00000006,-0.000477
 27,0.00090253,0.00000002,-0.00351864,-0.00006811,-0.00000003,0.0022231
 2,-0.00057874,0.00000005,0.01930332,0.35721098,0.00000024,0.00000013,-
 0.00313021,0.,-0.00000010,-0.00030271,0.00000009,-0.00000009,0.0007927
 4,0.00000020,-0.00000154,0.00405565,0.00000039,0.00000073,0.00154097,-
 0.00000195,-0.00000791,-0.03187675,-0.00000054,-0.00000028,0.00686694,
 -0.00000037,0.00000010,0.00552506,-0.00000011,0.00000003,-0.00129325,0
 .00000005,0.00000023,-0.00418979,-0.00000003,-0.00000002,-0.00033425,0
 .00000203,0.00000860,0.02308956,0.00038835,-0.00010250,0.00000003,-0.0
 0144574,0.00052636,-0.00000004,-0.00046625,-0.00078396,-0.00000005,-0.
 00053224,-0.00099669,0.,0.00545378,0.00038633,0.00000018,0.00140077,-0
 .00096998,-0.00000024,-0.00196322,-0.00332511,-0.00000049,-0.26079772,
 0.12780416,-0.00000754,-0.01568894,0.01518885,-0.00000053,-0.00085380,
 -0.00018228,0.00000015,0.00000116,0.00010448,0.00000001,0.00014247,-0.
 00036067,-0.00000003,0.27356898,-0.00012985,0.00034562,0.,-0.00101203,
 0.00043044,-0.00000003,-0.00154388,0.00182983,0.,-0.00073582,-0.000788
 39,-0.00000003,0.02762595,-0.01088315,0.00000100,-0.00182366,-0.005526
 58,-0.00000037,-0.00302988,-0.00104241,-0.00000033,0.12739850,-0.13758
 781,0.00000355,-0.01397989,0.01145725,-0.00000046,0.00320349,-0.000850
 94,0.00000016,0.00002268,-0.00015192,0.,0.00131922,-0.00071787,0.00000
 003,-0.13777928,0.14234081,0.00000001,0.00000003,-0.00036057,-0.000000
 08,0.00000003,-0.00007992,0.,-0.00000005,-0.00018245,0.,-0.00000008,-0
 .00102711,0.00000070,-0.00000017,0.00298794,-0.00000025,-0.00000034,0.
 00638641,-0.00000052,-0.00000028,0.00707515,-0.00000748,0.00000349,-0.
 03647977,-0.00000113,0.00000091,0.00290840,0.00000014,0.00000003,-0.00
 414089,0.,0.,-0.00024088,0.,-0.00000005,0.00068982,0.00000835,-0.00000
 366,0.02601058,0.00034970,0.00172307,0.00000007,0.00302337,0.00082361,
 0.00000031,-0.00039421,0.00041084,0.,-0.00416371,0.00155989,-0.0000004
 5,-0.00517076,-0.00254074,-0.00000064,-0.00150288,0.00043462,-0.000000
 01,0.00431400,0.02606690,0.00000061,0.00425215,-0.02867750,-0.00000055
 ,-0.05913850,-0.01478244,-0.00000142,0.00118372,-0.00150545,-0.0000000
 1,-0.00032084,-0.00008202,-0.00000001,0.00004179,-0.00006659,0.0000000
 1,0.00069240,0.00049908,0.00000024,0.05843007,0.00025769,-0.00127582,-
 0.00000003,-0.00017981,0.00268270,0.00000013,-0.00044931,0.00017236,0.
 ,0.00237589,0.00062644,-0.00000001,-0.00333967,0.00129797,-0.00000030,
 0.00077156,0.00081047,0.00000008,-0.00667939,-0.01476052,-0.00000067,0
 .00120061,-0.01023603,-0.00000022,-0.01401441,-0.33056569,-0.00000738,
 0.00094556,-0.00055001,0.00000001,0.00023124,0.00030978,0.00000004,-0.
 00000072,-0.00011395,0.,-0.00014321,0.00059244,0.00000010,0.01718861,0
 .35167532,0.00000002,0.00000004,0.00002220,0.00000031,0.00000013,-0.00
 401056,-0.00000002,0.00000002,0.00008459,-0.00000043,-0.00000002,0.006
 45716,-0.00000063,-0.00000028,0.00715207,-0.00000002,0.00000006,-0.001
 09275,-0.00000007,0.00000078,0.00314238,0.00000013,-0.00000158,0.00218
 716,-0.00000145,-0.00000738,-0.03253028,0.00000006,-0.00000008,0.00042
 136,0.,0.00000002,-0.00037482,0.00000002,0.,-0.00031852,0.00000020,0.0
 0000012,-0.00395303,0.00000191,0.00000820,0.02256693,-0.00018144,0.000
 15097,0.,0.00007287,0.00011928,0.,-0.00988189,0.04715133,0.00000044,0.
 00019728,0.00037025,0.00000002,0.00218105,-0.02468086,-0.00000069,0.00
 153156,-0.00195554,0.00000009,-0.00010227,0.00014832,0.,-0.00531413,-0
 .00142222,-0.00000034,0.00094576,-0.00151689,0.,-0.05676291,-0.0117348
 1,-0.00000065,-0.00001357,-0.00014327,0.,-0.00076592,0.00098723,0.,0.0
 0002227,-0.00012901,0.,-0.00040653,-0.00022387,-0.00000001,0.06841094,
 -0.00068805,0.00072789,-0.00000002,-0.00092705,-0.00029190,-0.00000006
 ,0.03013921,-0.02286573,-0.00000008,-0.00044219,-0.00052635,-0.0000000
 2,0.00362695,-0.01542959,0.00000004,0.00095604,0.00022207,0.00000004,0
 .00083052,0.00065253,0.00000005,-0.00346226,0.00057417,-0.00000021,0.0
 0029840,-0.00063667,0.,-0.02192845,-0.26257550,-0.00000139,-0.00006811
 ,-0.00056688,-0.00000002,-0.00134461,0.00052664,-0.00000004,0.00038529
 ,0.00031302,0.00000002,-0.00034923,-0.00020053,0.,-0.00715118,0.299839
 81,0.,0.,0.00002939,0.,0.,-0.00008449,0.00000033,-0.00000039,0.0195967
 0,0.00000005,-0.00000002,-0.00053372,-0.00000085,-0.00000194,0.0173334
 6,0.00000016,0.00000001,-0.00108104,-0.00000007,0.,0.00052038,-0.00000
 041,-0.00000017,0.00215782,0.00000011,-0.00000004,-0.00079961,-0.00000
 046,0.00000084,-0.05944817,0.,0.,0.00000716,-0.00000002,0.00000003,0.0
 0013521,0.,-0.00000001,0.00034347,0.,0.,-0.00042740,0.00000114,0.00000
 168,0.02229953,0.00258490,-0.00187025,0.00258258,-0.00040767,-0.000218
 37,0.00010809,0.00016205,-0.00001285,0.00000059,0.00100776,0.00033440,
 0.00138842,-0.00030087,0.00052035,-0.00045274,0.00021920,-0.00082316,0
 .00025680,0.00029165,0.00061924,-0.00033856,-0.00001953,-0.00056319,-0
 .00005370,0.00044147,0.00008288,-0.00005054,-0.00015041,-0.00003091,0.
 00004630,-0.10450231,-0.03601357,-0.09717471,-0.00146130,0.00089679,0.
 00152687,-0.00001859,-0.00000393,0.00007013,0.00001777,-0.00003266,0.0
 0002609,0.00000662,0.00000264,-0.00000164,0.10625520,-0.01222962,-0.02
 736198,-0.02710106,0.00011672,0.00008402,0.00001938,0.00018941,0.00002
 698,0.00001014,-0.00692737,0.00429977,-0.00124398,0.00060451,-0.000541
 93,0.00034948,0.00058113,0.00084726,0.00026551,0.00045573,-0.00167214,
 0.00063869,0.00063507,0.00064245,0.00000641,-0.00095833,0.00009634,0.0
 0013935,-0.00020936,-0.00020319,-0.00003748,-0.03270355,-0.07171604,-0
 .06062744,0.00094188,-0.00021742,-0.00088001,-0.00000018,0.00002492,-0
 .00005186,0.00001816,-0.00002815,-0.00007904,0.00000488,0.00004828,0.0
 0000085,0.04124092,0.08580155,0.00402092,-0.00226524,0.00848268,0.0000
 3067,0.00012681,0.00006440,-0.00004937,0.00013589,0.00000360,-0.001506
 18,0.00105166,0.00050834,0.00034420,0.00040480,-0.00003116,-0.00071186
 ,-0.00102513,-0.00017844,0.00035578,-0.00044213,-0.00025656,0.00009212
 ,0.00004580,-0.00006247,-0.00016262,0.00014018,-0.00002222,0.00003170,
 -0.00027812,0.00001485,-0.09612678,-0.06575447,-0.22573162,0.00079847,
 0.00020157,-0.00020632,-0.00000601,0.00006551,0.00001590,0.00001824,-0
 .00000906,0.00001354,0.00003654,0.00007733,-0.00001005,0.10429796,0.07
 360960,0.23531039,0.00258561,-0.00187027,-0.00258340,-0.00040765,-0.00
 021835,-0.00010814,0.00016205,-0.00001284,-0.00000058,0.00100768,0.000
 33457,-0.00138824,-0.00030085,0.00052034,0.00045274,0.00021920,-0.0008
 2324,-0.00025683,0.00029164,0.00061915,0.00033865,-0.00001952,-0.00056
 317,0.00005368,0.00044143,0.00008289,0.00005058,-0.00015041,-0.0000309
 4,-0.00004631,-0.10451766,-0.03602598,0.09718180,-0.00146112,0.0008968
 8,-0.00152689,-0.00001858,-0.00000392,-0.00007013,0.00001778,-0.000032
 65,-0.00002610,0.00000662,0.00000265,0.00000164,0.00668659,0.00533377,
 -0.01299924,0.10627169,-0.01223145,-0.02736391,0.02709746,0.00011672,0
 .00008402,-0.00001937,0.00018942,0.00002699,-0.00001013,-0.00692759,0.
 00429968,0.00124349,0.00060455,-0.00054185,-0.00034944,0.00058113,0.00
 084718,-0.00026538,0.00045585,-0.00167211,-0.00063870,0.00063507,0.000
 64243,-0.00000631,-0.00095830,0.00009634,-0.00013945,-0.00020937,-0.00
 020323,0.00003746,-0.03271570,-0.07172535,0.06063644,0.00094187,-0.000
 21745,0.00088008,-0.00000019,0.00002493,0.00005186,0.00001816,-0.00002
 816,0.00007904,0.00000489,0.00004829,-0.00000085,0.00533340,0.00563653
 ,-0.00753400,0.04125461,0.08581220,-0.00402239,0.00226239,0.00848447,-
 0.00003071,-0.00012682,0.00006439,0.00004940,-0.00013589,0.00000359,0.
 00150571,-0.00105136,0.00050836,-0.00034420,-0.00040480,-0.00003120,0.
 00071197,0.00102514,-0.00017839,-0.00035568,0.00044206,-0.00025660,-0.
 00009206,-0.00004579,-0.00006248,0.00016258,-0.00014016,-0.00002221,-0
 .00003172,0.00027810,0.00001486,0.09613418,0.06576310,-0.22570702,-0.0
 0079851,-0.00020149,-0.00020643,0.00000600,-0.00006551,0.00001590,-0.0
 0001823,0.00000906,0.00001354,-0.00003654,-0.00007732,-0.00001004,0.01
 300161,0.00753622,-0.01946245,-0.10430524,-0.07361740,0.23528301,0.003
 74312,0.00121420,0.00000011,0.00024106,0.00021156,0.00000002,-0.000214
 23,0.00005348,0.,0.00215278,-0.00153434,0.00000006,0.00018143,0.000081
 10,0.00000001,-0.00039871,-0.00040404,-0.00000003,-0.00011589,-0.00027
 117,-0.00000003,-0.00009324,0.00015706,0.,-0.00007616,0.00002179,0.,0.
 00026845,0.00001741,0.,-0.30893302,0.07519054,-0.00000738,0.00019347,0
 .00046285,0.00000003,0.00000700,0.00003270,0.,0.00000394,0.00001057,0.
 ,0.00001328,0.00000059,0.,-0.01084540,0.00276015,0.00151606,-0.0108473
 6,0.00276087,-0.00151679,0.32476818,0.04072072,-0.02547126,0.00000086,
 -0.00031487,0.00002716,-0.00000002,0.00010196,0.00005955,0.,-0.0025815
 3,-0.00523436,-0.00000046,0.00051132,0.00024741,0.00000003,-0.00122593
 ,-0.00061738,-0.00000006,0.00219182,-0.00039142,0.00000007,0.00006384,
 0.00020502,0.,-0.00052732,-0.00043511,0.,-0.00011890,-0.00022407,0.,0.
 06075165,-0.06199683,0.00000191,0.00000890,0.00070082,0.00000003,0.000
 00427,0.00004529,0.,0.00012409,-0.00009546,0.,0.00002034,0.00005574,0.
 ,-0.00949862,0.00421299,0.00142893,-0.00950038,0.00421370,-0.00142944,
 -0.08074257,0.08468493,0.00000160,-0.00000088,0.00005193,0.,0.00000001
 ,-0.00003359,0.,0.,-0.00001017,-0.00000007,-0.00000021,0.00054766,0.00
 000003,0.,0.00019286,-0.00000009,-0.00000003,0.00033420,0.00000004,-0.
 00000006,0.00059457,0.,0.00000003,0.00002274,-0.00000003,-0.00000001,-
 0.00022878,0.,0.,0.00005311,-0.00000790,0.00000251,-0.04987689,0.00000
 002,0.00000007,-0.00051060,0.,0.,-0.00003062,0.,0.,-0.00001146,0.,0.,-
 0.00000167,-0.02520579,0.00750038,0.00156297,0.02520424,-0.00749994,0.
 00156411,0.00000793,-0.00000185,0.04583525,-0.00012700,0.00191154,0.00
 000008,-0.04724719,0.07293056,-0.00000198,0.00028081,0.00002561,0.,-0.
 00740531,-0.00179796,-0.00000043,0.00024775,0.00077675,0.00000003,0.00
 108481,-0.00132931,-0.00000007,-0.00253392,-0.04958060,-0.00000046,-0.
 00060921,-0.00022858,-0.00000002,0.00180492,-0.00243861,0.00000010,-0.
 00052384,-0.00003107,-0.00000002,0.00035232,-0.00049268,0.,-0.00036990
 ,-0.00011771,0.,0.00010787,0.00006952,0.,-0.00122926,0.00211397,-0.000
 00001,0.00004041,0.00011885,0.,0.00003286,0.00014607,0.00001940,0.0000
 3285,0.00014606,-0.00001939,-0.00004868,0.00001122,0.,0.05610974,-0.00
 114980,0.00088093,-0.00000004,0.02151642,-0.53298394,-0.00000124,0.000
 82560,-0.00016233,0.00000002,-0.00050740,0.00215933,0.00000002,0.00149
 680,0.00098505,0.00000008,-0.00067813,-0.00116128,-0.00000007,-0.00187
 110,-0.02196142,-0.00000029,-0.00022173,-0.00132998,-0.00000006,0.0049
 5376,0.00511037,0.00000033,-0.00135919,-0.00047739,-0.00000006,-0.0000
 3010,-0.00032240,-0.00000001,-0.00017394,0.00000991,0.,0.00024431,0.00
 014453,0.00000002,-0.00086306,-0.00031315,-0.00000002,0.00000016,0.000
 08471,0.,0.00003689,0.00001977,0.00002009,0.00003689,0.00001977,-0.000
 02008,-0.00002275,0.00001329,0.,-0.02223364,0.54928425,-0.00000002,0.0
 0000009,-0.00040069,-0.00000193,0.00000173,-0.00350844,0.00000006,0.,-
 0.00000374,-0.00000039,0.00000004,0.00145549,0.00000010,0.00000003,0.0
 0043690,-0.00000012,-0.00000017,0.00109013,-0.00000051,-0.00000308,-0.
 00035209,0.,0.00000003,-0.00125248,0.00000019,-0.00000001,-0.00112020,
 -0.00000010,-0.00000003,0.00005546,0.00000001,-0.00000003,0.00012260,-
 0.00000001,0.,-0.00032713,0.,0.,0.00006167,-0.00000006,0.00000006,0.00
 065791,0.,0.,-0.00002694,-0.00002777,-0.00005512,-0.00001537,0.0000277
 8,0.00005514,-0.00001537,0.,0.,-0.00005563,0.00000277,0.00000131,0.003
 19792\\-0.00003764,-0.00002580,0.00000018,-0.00003867,-0.00004772,0.00
 000017,-0.00003670,0.00001662,0.00000272,0.00006717,0.00007853,-0.0000
 0026,0.00005901,-0.00001860,0.00000219,-0.00005784,-0.00002530,0.00000
 026,0.00006134,-0.00003114,-0.00000016,0.00001966,0.00000787,0.0000000
 4,-0.00004091,0.00002556,0.00000005,-0.00001753,0.00001031,-0.00000750
 ,0.00001352,0.00000808,0.00000020,0.00000502,0.00001304,0.00000002,-0.
 00001830,-0.00001198,0.00000001,0.00001807,-0.00001187,-0.00000005,0.0
 0001745,-0.00000187,0.00000247,-0.00000359,-0.00000752,-0.00000845,-0.
 00000328,-0.00000749,0.00000816,-0.00000849,0.00000010,0.00000004,0.00
 000173,0.00002918,-0.00000011\\\@


 FORGIVE MY NONSENSE AS I ALSO FORGIVE THOSE WHO THINK THEY TALK SENSE

                                                       -- ROBERT FROST
 Job cpu time:       0 days  2 hours 19 minutes 34.6 seconds.
 Elapsed time:       0 days  0 hours  8 minutes 48.9 seconds.
 File lengths (MBytes):  RWF=    162 Int=      0 D2E=      0 Chk=      8 Scr=      1
 Normal termination of Gaussian 16 at Sun Sep 28 02:10:30 2025.
