 Entering Gaussian System, Link 0=g16
 Input=ZMEO0169.gjf
 Output=ZMEO0169.log
 Initial command:
 /usr/local/g16/l1.exe "/dados_01/scratch/Gau-2313964.inp" -scrdir="/dados_01/scratch/"
 Entering Link 1 = /usr/local/g16/l1.exe PID=   2313965.
  
 Copyright (c) 1988-2017, Gaussian, Inc.  All Rights Reserved.
  
 This is part of the Gaussian(R) 16 program.  It is based on
 the Gaussian(R) 09 system (copyright 2009, Gaussian, Inc.),
 the Gaussian(R) 03 system (copyright 2003, Gaussian, Inc.),
 the Gaussian(R) 98 system (copyright 1998, Gaussian, Inc.),
 the Gaussian(R) 94 system (copyright 1995, Gaussian, Inc.),
 the Gaussian 92(TM) system (copyright 1992, Gaussian, Inc.),
 the Gaussian 90(TM) system (copyright 1990, Gaussian, Inc.),
 the Gaussian 88(TM) system (copyright 1988, Gaussian, Inc.),
 the Gaussian 86(TM) system (copyright 1986, Carnegie Mellon
 University), and the Gaussian 82(TM) system (copyright 1983,
 Carnegie Mellon University). Gaussian is a federally registered
 trademark of Gaussian, Inc.
  
 This software contains proprietary and confidential information,
 including trade secrets, belonging to Gaussian, Inc.
  
 This software is provided under written license and may be
 used, copied, transmitted, or stored only in accord with that
 written license.
  
 The following legend is applicable only to US Government
 contracts under FAR:
  
                    RESTRICTED RIGHTS LEGEND
  
 Use, reproduction and disclosure by the US Government is
 subject to restrictions as set forth in subparagraphs (a)
 and (c) of the Commercial Computer Software - Restricted
 Rights clause in FAR 52.227-19.
  
 Gaussian, Inc.
 340 Quinnipiac St., Bldg. 40, Wallingford CT 06492
  
  
 ---------------------------------------------------------------
 Warning -- This program may not be used in any manner that
 competes with the business of Gaussian, Inc. or will provide
 assistance to any competitor of Gaussian, Inc.  The licensee
 of this program is prohibited from giving any competitor of
 Gaussian, Inc. access to this program.  By using this program,
 the user acknowledges that Gaussian, Inc. is engaged in the
 business of creating and licensing software in the field of
 computational chemistry and represents and warrants to the
 licensee that it is not a competitor of Gaussian, Inc. and that
 it will not use this program in any manner prohibited above.
 ---------------------------------------------------------------
  

 Cite this work as:
 Gaussian 16, Revision B.01,
 M. J. Frisch, G. W. Trucks, H. B. Schlegel, G. E. Scuseria, 
 M. A. Robb, J. R. Cheeseman, G. Scalmani, V. Barone, 
 G. A. Petersson, H. Nakatsuji, X. Li, M. Caricato, A. V. Marenich, 
 J. Bloino, B. G. Janesko, R. Gomperts, B. Mennucci, H. P. Hratchian, 
 J. V. Ortiz, A. F. Izmaylov, J. L. Sonnenberg, D. Williams-Young, 
 F. Ding, F. Lipparini, F. Egidi, J. Goings, B. Peng, A. Petrone, 
 T. Henderson, D. Ranasinghe, V. G. Zakrzewski, J. Gao, N. Rega, 
 G. Zheng, W. Liang, M. Hada, M. Ehara, K. Toyota, R. Fukuda, 
 J. Hasegawa, M. Ishida, T. Nakajima, Y. Honda, O. Kitao, H. Nakai, 
 T. Vreven, K. Throssell, J. A. Montgomery, Jr., J. E. Peralta, 
 F. Ogliaro, M. J. Bearpark, J. J. Heyd, E. N. Brothers, K. N. Kudin, 
 V. N. Staroverov, T. A. Keith, R. Kobayashi, J. Normand, 
 K. Raghavachari, A. P. Rendell, J. C. Burant, S. S. Iyengar, 
 J. Tomasi, M. Cossi, J. M. Millam, M. Klene, C. Adamo, R. Cammi, 
 J. W. Ochterski, R. L. Martin, K. Morokuma, O. Farkas, 
 J. B. Foresman, and D. J. Fox, Gaussian, Inc., Wallingford CT, 2016.
 
 ******************************************
 Gaussian 16:  ES64L-G16RevB.01 20-Dec-2017
                28-Sep-2025 
 ******************************************
 %nprocs=16
 Will use up to   16 processors via shared memory.
 %mem=40GB
 %chk=ZMEO0169.chk
 ----------------------------------------------------------------------
 # opt freq=noraman M08HX/6-311++G** scf=xqc Empiricaldispersion=pfd In
 t(Grid=ultraFine)
 ----------------------------------------------------------------------
 1/18=20,19=15,26=4,38=1/1,3;
 2/9=110,12=2,17=6,18=5,40=1/2;
 3/5=4,6=6,7=1111,11=2,25=1,30=1,71=1,74=-74,75=-5,124=11/1,2,3;
 4//1;
 5/5=2,8=3,13=1,38=5/2,8;
 6/7=2,8=2,9=2,10=2,28=1/1;
 7//1,2,3,16;
 1/18=20,19=15,26=4/3(2);
 2/9=110/2;
 99//99;
 2/9=110/2;
 3/5=4,6=6,7=1111,11=2,25=1,30=1,71=1,74=-74,75=-5,124=11/1,2,3;
 4/5=5,16=3,69=1/1;
 5/5=2,8=3,13=1,38=5/2,8;
 7//1,2,3,16;
 1/18=20,19=15,26=4/3(-5);
 2/9=110/2;
 6/7=2,8=2,9=2,10=2,19=2,28=1/1;
 99/9=1/99;
 --------
 ZMEO0169
 --------
 Symbolic Z-matrix:
 Charge =  0 Multiplicity = 1
 O                    -1.2561    0.7519   -0.4292 
 O                     1.3789    1.2859   -0.2367 
 C                    -0.8724   -0.5389   -0.1266 
 C                     0.4107   -0.8774    0.072 
 C                    -1.9874   -1.5356   -0.0378 
 C                     1.5438    0.0903   -0.0087 
 C                     2.9201   -0.4684    0.2422 
 C                    -2.1375    1.2922    0.5248 
 H                     0.6715   -1.9044    0.3101 
 H                    -2.6612   -1.4314   -0.8947 
 H                    -2.565    -1.4012    0.8819 
 H                    -1.6116   -2.5647   -0.0434 
 H                     2.9668   -1.5301   -0.015 
 H                     3.6424    0.0587   -0.3879 
 H                     3.1798   -0.3337    1.295 
 H                    -1.7763    1.1395    1.5484 
 H                    -3.1456    0.8797    0.4128 
 H                    -2.2046    2.3711    0.3541 
 

 GradGradGradGradGradGradGradGradGradGradGradGradGradGradGradGradGradGrad
 Berny optimization.
 Initialization pass.
                           ----------------------------
                           !    Initial Parameters    !
                           ! (Angstroms and Degrees)  !
 --------------------------                            --------------------------
 ! Name  Definition              Value          Derivative Info.                !
 --------------------------------------------------------------------------------
 ! R1    R(1,3)                  1.3802         estimate D2E/DX2                !
 ! R2    R(1,8)                  1.4067         estimate D2E/DX2                !
 ! R3    R(2,6)                  1.2283         estimate D2E/DX2                !
 ! R4    R(3,4)                  1.3418         estimate D2E/DX2                !
 ! R5    R(3,5)                  1.4982         estimate D2E/DX2                !
 ! R6    R(4,6)                  1.4923         estimate D2E/DX2                !
 ! R7    R(4,9)                  1.086          estimate D2E/DX2                !
 ! R8    R(5,10)                 1.0951         estimate D2E/DX2                !
 ! R9    R(5,11)                 1.0943         estimate D2E/DX2                !
 ! R10   R(5,12)                 1.0956         estimate D2E/DX2                !
 ! R11   R(6,7)                  1.5064         estimate D2E/DX2                !
 ! R12   R(7,13)                 1.0934         estimate D2E/DX2                !
 ! R13   R(7,14)                 1.0939         estimate D2E/DX2                !
 ! R14   R(7,15)                 1.0927         estimate D2E/DX2                !
 ! R15   R(8,16)                 1.0961         estimate D2E/DX2                !
 ! R16   R(8,17)                 1.095          estimate D2E/DX2                !
 ! R17   R(8,18)                 1.0944         estimate D2E/DX2                !
 ! A1    A(3,1,8)              112.6253         estimate D2E/DX2                !
 ! A2    A(1,3,4)              122.2918         estimate D2E/DX2                !
 ! A3    A(1,3,5)              115.3584         estimate D2E/DX2                !
 ! A4    A(4,3,5)              122.3497         estimate D2E/DX2                !
 ! A5    A(3,4,6)              123.6768         estimate D2E/DX2                !
 ! A6    A(3,4,9)              120.0436         estimate D2E/DX2                !
 ! A7    A(6,4,9)              116.2792         estimate D2E/DX2                !
 ! A8    A(3,5,10)             110.3806         estimate D2E/DX2                !
 ! A9    A(3,5,11)             111.1573         estimate D2E/DX2                !
 ! A10   A(3,5,12)             111.6736         estimate D2E/DX2                !
 ! A11   A(10,5,11)            108.7352         estimate D2E/DX2                !
 ! A12   A(10,5,12)            107.244          estimate D2E/DX2                !
 ! A13   A(11,5,12)            107.5001         estimate D2E/DX2                !
 ! A14   A(2,6,4)              122.6378         estimate D2E/DX2                !
 ! A15   A(2,6,7)              120.9701         estimate D2E/DX2                !
 ! A16   A(4,6,7)              116.373          estimate D2E/DX2                !
 ! A17   A(6,7,13)             111.0982         estimate D2E/DX2                !
 ! A18   A(6,7,14)             109.1852         estimate D2E/DX2                !
 ! A19   A(6,7,15)             109.3838         estimate D2E/DX2                !
 ! A20   A(13,7,14)            107.7094         estimate D2E/DX2                !
 ! A21   A(13,7,15)            109.6448         estimate D2E/DX2                !
 ! A22   A(14,7,15)            109.795          estimate D2E/DX2                !
 ! A23   A(1,8,16)             111.9202         estimate D2E/DX2                !
 ! A24   A(1,8,17)             111.2716         estimate D2E/DX2                !
 ! A25   A(1,8,18)             108.1367         estimate D2E/DX2                !
 ! A26   A(16,8,17)            110.2679         estimate D2E/DX2                !
 ! A27   A(16,8,18)            107.6496         estimate D2E/DX2                !
 ! A28   A(17,8,18)            107.3969         estimate D2E/DX2                !
 ! D1    D(8,1,3,4)           -120.0011         estimate D2E/DX2                !
 ! D2    D(8,1,3,5)             60.1035         estimate D2E/DX2                !
 ! D3    D(3,1,8,16)            48.2466         estimate D2E/DX2                !
 ! D4    D(3,1,8,17)           -75.6274         estimate D2E/DX2                !
 ! D5    D(3,1,8,18)           166.653          estimate D2E/DX2                !
 ! D6    D(1,3,4,6)              0.1296         estimate D2E/DX2                !
 ! D7    D(1,3,4,9)            179.8914         estimate D2E/DX2                !
 ! D8    D(5,3,4,6)           -179.9823         estimate D2E/DX2                !
 ! D9    D(5,3,4,9)             -0.2205         estimate D2E/DX2                !
 ! D10   D(1,3,5,10)            46.7168         estimate D2E/DX2                !
 ! D11   D(1,3,5,11)           -74.0265         estimate D2E/DX2                !
 ! D12   D(1,3,5,12)           165.922          estimate D2E/DX2                !
 ! D13   D(4,3,5,10)          -133.1786         estimate D2E/DX2                !
 ! D14   D(4,3,5,11)           106.0782         estimate D2E/DX2                !
 ! D15   D(4,3,5,12)           -13.9733         estimate D2E/DX2                !
 ! D16   D(3,4,6,2)              1.6455         estimate D2E/DX2                !
 ! D17   D(3,4,6,7)           -179.9307         estimate D2E/DX2                !
 ! D18   D(9,4,6,2)           -178.1245         estimate D2E/DX2                !
 ! D19   D(9,4,6,7)              0.2993         estimate D2E/DX2                !
 ! D20   D(2,6,7,13)          -154.4969         estimate D2E/DX2                !
 ! D21   D(2,6,7,14)           -35.8462         estimate D2E/DX2                !
 ! D22   D(2,6,7,15)            84.3219         estimate D2E/DX2                !
 ! D23   D(4,6,7,13)            27.0511         estimate D2E/DX2                !
 ! D24   D(4,6,7,14)           145.7018         estimate D2E/DX2                !
 ! D25   D(4,6,7,15)           -94.1302         estimate D2E/DX2                !
 --------------------------------------------------------------------------------
 Trust Radius=3.00D-01 FncErr=1.00D-07 GrdErr=1.00D-06 EigMax=2.50D+02 EigMin=1.00D-04
 Number of steps in this run=     80 maximum allowed number of steps=    108.
 GradGradGradGradGradGradGradGradGradGradGradGradGradGradGradGradGradGrad

                          Input orientation:                          
 ---------------------------------------------------------------------
 Center     Atomic      Atomic             Coordinates (Angstroms)
 Number     Number       Type             X           Y           Z
 ---------------------------------------------------------------------
      1          8           0       -1.256100    0.751900   -0.429200
      2          8           0        1.378900    1.285900   -0.236700
      3          6           0       -0.872400   -0.538900   -0.126600
      4          6           0        0.410700   -0.877400    0.072000
      5          6           0       -1.987400   -1.535600   -0.037800
      6          6           0        1.543800    0.090300   -0.008700
      7          6           0        2.920100   -0.468400    0.242200
      8          6           0       -2.137500    1.292200    0.524800
      9          1           0        0.671500   -1.904400    0.310100
     10          1           0       -2.661200   -1.431400   -0.894700
     11          1           0       -2.565000   -1.401200    0.881900
     12          1           0       -1.611600   -2.564700   -0.043400
     13          1           0        2.966800   -1.530100   -0.015000
     14          1           0        3.642400    0.058700   -0.387900
     15          1           0        3.179800   -0.333700    1.295000
     16          1           0       -1.776300    1.139500    1.548400
     17          1           0       -3.145600    0.879700    0.412800
     18          1           0       -2.204600    2.371100    0.354100
 ---------------------------------------------------------------------
                    Distance matrix (angstroms):
                    1          2          3          4          5
     1  O    0.000000
     2  O    2.695448   0.000000
     3  C    1.380202   2.900064   0.000000
     4  C    2.384123   2.390099   1.341779   0.000000
     5  C    2.433239   4.396862   1.498173   2.489210   0.000000
     6  C    2.907572   1.228265   2.499563   1.492271   3.887643
     7  C    4.402335   2.383739   3.811042   2.548203   5.029997
     8  C    1.406736   3.597915   2.318993   3.377205   2.887127
     9  H    3.364244   3.313219   2.106875   1.086019   2.706806
    10  H    2.637763   4.913155   2.141574   3.267720   1.095053
    11  H    2.840430   4.901645   2.150704   3.128114   1.094319
    12  H    3.357835   4.879301   2.158056   2.636284   1.095584
    13  H    4.817880   3.240437   3.966660   2.639552   4.954256
    14  H    4.947478   2.579208   4.561669   3.395832   5.861656
    15  H    4.881455   2.865737   4.299230   3.075590   5.469998
    16  H    2.081284   3.628127   2.537654   3.321236   3.117171
    17  H    2.072561   4.588894   2.733279   3.981308   2.716273
    18  H    2.033475   3.790538   3.236345   4.179967   3.932311
                    6          7          8          9         10
     6  C    0.000000
     7  C    1.506419   0.000000
     8  C    3.909112   5.362732   0.000000
     9  H    2.200311   2.668878   4.260848   0.000000
    10  H    4.558793   5.776748   3.115644   3.575215   0.000000
    11  H    4.460939   5.600505   2.750396   3.324921   1.779459
    12  H    4.123928   5.001234   3.933840   2.402812   1.763729
    13  H    2.156540   1.093407   5.857528   2.348232   5.697192
    14  H    2.132818   1.093882   5.980116   3.628665   6.497124
    15  H    2.134457   1.092692   5.613416   3.119086   6.333799
    16  H    3.814242   5.132999   1.096148   4.097614   3.655313
    17  H    4.774022   6.216043   1.094973   4.725676   2.699145
    18  H    4.402746   5.859849   1.094379   5.153037   4.028274
                   11         12         13         14         15
    11  H    0.000000
    12  H    1.766036   0.000000
    13  H    5.605520   4.693927   0.000000
    14  H    6.501962   5.882637   1.766289   0.000000
    15  H    5.857724   5.452173   1.786853   1.788890   0.000000
    16  H    2.742522   4.035102   5.662860   5.854887   5.176626
    17  H    2.399928   3.798048   6.584192   6.884192   6.500869
    18  H    3.826056   4.987161   6.488372   6.331285   6.098606
                   16         17         18
    16  H    0.000000
    17  H    1.797795   0.000000
    18  H    1.768228   1.764426   0.000000
 Stoichiometry    C6H10O2
 Framework group  C1[X(C6H10O2)]
 Deg. of freedom    48
 Full point group                 C1      NOp   1
 Largest Abelian subgroup         C1      NOp   1
 Largest concise Abelian subgroup C1      NOp   1
                         Standard orientation:                         
 ---------------------------------------------------------------------
 Center     Atomic      Atomic             Coordinates (Angstroms)
 Number     Number       Type             X           Y           Z
 ---------------------------------------------------------------------
      1          8           0        1.219198   -0.725991   -0.480549
      2          8           0       -1.400571   -1.327676   -0.279997
      3          6           0        0.805542    0.550807   -0.158628
      4          6           0       -0.484304    0.854735    0.051832
      5          6           0        1.896073    1.573608   -0.063016
      6          6           0       -1.593597   -0.139633   -0.035191
      7          6           0       -2.981741    0.381409    0.231024
      8          6           0        2.119476   -1.256744    0.461102
      9          1           0       -0.768968    1.871733    0.305049
     10          1           0        2.567019    1.497421   -0.925088
     11          1           0        2.482404    1.441509    0.851478
     12          1           0        1.494912    2.593054   -0.052784
     13          1           0       -3.056245    1.444910   -0.011778
     14          1           0       -3.694605   -0.155125   -0.401854
     15          1           0       -3.231622    0.226490    1.283419
     16          1           0        1.760843   -1.126510    1.488701
     17          1           0        3.116367   -0.817927    0.348790
     18          1           0        2.212196   -2.331312    0.275703
 ---------------------------------------------------------------------
 Rotational constants (GHZ):           3.6599287           1.3244712           1.0294217
 Standard basis: 6-311++G(d,p) (5D, 7F)
 There are   254 symmetry adapted cartesian basis functions of A   symmetry.
 There are   246 symmetry adapted basis functions of A   symmetry.
   246 basis functions,   378 primitive gaussians,   254 cartesian basis functions
    31 alpha electrons       31 beta electrons
       nuclear repulsion energy       374.4641415803 Hartrees.
 NAtoms=   18 NActive=   18 NUniq=   18 SFac= 1.00D+00 NAtFMM=   60 NAOKFM=F Big=F
 Integral buffers will be    131072 words long.
 Raffenetti 2 integral format.
 Two-electron integral symmetry is turned on.
 R6APFD:  NTU= -4 IXU= 1 FactS= 1.050
 Nuclear repulsion after empirical dispersion term =      374.4538636665 Hartrees.
 One-electron integrals computed using PRISM.
 NBasis=   246 RedAO= T EigKep=  5.08D-06  NBF=   246
 NBsUse=   246 1.00D-06 EigRej= -1.00D+00 NBFU=   246
 ExpMin= 3.60D-02 ExpMax= 8.59D+03 ExpMxC= 1.30D+03 IAcc=3 IRadAn=         5 AccDes= 0.00D+00
 Harris functional with IExCor= 1009 and IRadAn=       5 diagonalized for initial guess.
 HarFok:  IExCor= 1009 AccDes= 0.00D+00 IRadAn=         5 IDoV= 1 UseB2=F ITyADJ=14
 ICtDFT=  3500011 ScaDFX=  1.000000  1.000000  1.000000  1.000000
 FoFCou: FMM=F IPFlag=           0 FMFlag=      100000 FMFlg1=           0
         NFxFlg=           0 DoJE=T BraDBF=F KetDBF=T FulRan=T
         wScrn=  0.000000 ICntrl=       500 IOpCl=  0 I1Cent=   200000004 NGrid=           0
         NMat0=    1 NMatS0=      1 NMatT0=    0 NMatD0=    1 NMtDS0=    0 NMtDT0=    0
 Petite list used in FoFCou.
 Requested convergence on RMS density matrix=1.00D-08 within  32 cycles.
 Requested convergence on MAX density matrix=1.00D-06.
 Requested convergence on             energy=1.00D-06.
 No special actions if energy rises.
 SCF Done:  E(RM08HX) =  -385.059059752     A.U. after   15 cycles
            NFock= 15  Conv=0.51D-08     -V/T= 2.0046
 QCSCF skips out because SCF is already converged.

 **********************************************************************

            Population analysis using the SCF Density.

 **********************************************************************

 Orbital symmetries:
       Occupied  (A) (A) (A) (A) (A) (A) (A) (A) (A) (A) (A) (A)
                 (A) (A) (A) (A) (A) (A) (A) (A) (A) (A) (A) (A)
                 (A) (A) (A) (A) (A) (A) (A)
       Virtual   (A) (A) (A) (A) (A) (A) (A) (A) (A) (A) (A) (A)
                 (A) (A) (A) (A) (A) (A) (A) (A) (A) (A) (A) (A)
                 (A) (A) (A) (A) (A) (A) (A) (A) (A) (A) (A) (A)
                 (A) (A) (A) (A) (A) (A) (A) (A) (A) (A) (A) (A)
                 (A) (A) (A) (A) (A) (A) (A) (A) (A) (A) (A) (A)
                 (A) (A) (A) (A) (A) (A) (A) (A) (A) (A) (A) (A)
                 (A) (A) (A) (A) (A) (A) (A) (A) (A) (A) (A) (A)
                 (A) (A) (A) (A) (A) (A) (A) (A) (A) (A) (A) (A)
                 (A) (A) (A) (A) (A) (A) (A) (A) (A) (A) (A) (A)
                 (A) (A) (A) (A) (A) (A) (A) (A) (A) (A) (A) (A)
                 (A) (A) (A) (A) (A) (A) (A) (A) (A) (A) (A) (A)
                 (A) (A) (A) (A) (A) (A) (A) (A) (A) (A) (A) (A)
                 (A) (A) (A) (A) (A) (A) (A) (A) (A) (A) (A) (A)
                 (A) (A) (A) (A) (A) (A) (A) (A) (A) (A) (A) (A)
                 (A) (A) (A) (A) (A) (A) (A) (A) (A) (A) (A) (A)
                 (A) (A) (A) (A) (A) (A) (A) (A) (A) (A) (A) (A)
                 (A) (A) (A) (A) (A) (A) (A) (A) (A) (A) (A) (A)
                 (A) (A) (A) (A) (A) (A) (A) (A) (A) (A) (A)
 The electronic state is 1-A.
 Alpha  occ. eigenvalues --  -19.63441 -19.58300 -10.61760 -10.61644 -10.57960
 Alpha  occ. eigenvalues --  -10.54199 -10.53436 -10.52563  -1.18961  -1.14422
 Alpha  occ. eigenvalues --   -0.91644  -0.85376  -0.81575  -0.78977  -0.67318
 Alpha  occ. eigenvalues --   -0.62483  -0.57332  -0.55699  -0.55466  -0.52207
 Alpha  occ. eigenvalues --   -0.51142  -0.50095  -0.48898  -0.47586  -0.47188
 Alpha  occ. eigenvalues --   -0.44625  -0.42832  -0.41570  -0.37042  -0.31656
 Alpha  occ. eigenvalues --   -0.30855
 Alpha virt. eigenvalues --   -0.03369  -0.02541  -0.01974  -0.01105  -0.00176
 Alpha virt. eigenvalues --    0.00715   0.01195   0.01806   0.02468   0.03166
 Alpha virt. eigenvalues --    0.03833   0.04741   0.05395   0.05916   0.06778
 Alpha virt. eigenvalues --    0.07709   0.08374   0.08561   0.09602   0.10695
 Alpha virt. eigenvalues --    0.10797   0.11326   0.11539   0.12048   0.12753
 Alpha virt. eigenvalues --    0.13110   0.13701   0.13980   0.14461   0.15230
 Alpha virt. eigenvalues --    0.15755   0.16549   0.17178   0.17735   0.18505
 Alpha virt. eigenvalues --    0.19340   0.20494   0.20892   0.21432   0.23267
 Alpha virt. eigenvalues --    0.23435   0.24297   0.26661   0.26870   0.28955
 Alpha virt. eigenvalues --    0.29328   0.29405   0.30384   0.30600   0.31395
 Alpha virt. eigenvalues --    0.31991   0.33027   0.34425   0.36511   0.37037
 Alpha virt. eigenvalues --    0.37488   0.39869   0.42252   0.44520   0.44803
 Alpha virt. eigenvalues --    0.46920   0.48811   0.49560   0.50751   0.52173
 Alpha virt. eigenvalues --    0.52859   0.55325   0.57267   0.59558   0.62632
 Alpha virt. eigenvalues --    0.63483   0.64005   0.65406   0.65662   0.66623
 Alpha virt. eigenvalues --    0.67915   0.68310   0.69144   0.69624   0.70114
 Alpha virt. eigenvalues --    0.71347   0.72303   0.74071   0.75073   0.75947
 Alpha virt. eigenvalues --    0.78823   0.81741   0.85376   0.87771   0.88225
 Alpha virt. eigenvalues --    0.90287   0.93286   0.96141   0.98793   1.02373
 Alpha virt. eigenvalues --    1.05655   1.08113   1.10141   1.17380   1.17724
 Alpha virt. eigenvalues --    1.21906   1.24051   1.25599   1.28452   1.31914
 Alpha virt. eigenvalues --    1.33760   1.37006   1.40695   1.43308   1.45998
 Alpha virt. eigenvalues --    1.47693   1.48408   1.48665   1.49809   1.52853
 Alpha virt. eigenvalues --    1.55348   1.56077   1.57800   1.58487   1.58576
 Alpha virt. eigenvalues --    1.61261   1.64414   1.64609   1.66315   1.67202
 Alpha virt. eigenvalues --    1.70632   1.73290   1.74476   1.75525   1.76502
 Alpha virt. eigenvalues --    1.78537   1.80893   1.81141   1.85055   1.87951
 Alpha virt. eigenvalues --    1.92242   1.93530   1.98865   2.01366   2.05319
 Alpha virt. eigenvalues --    2.05799   2.06468   2.09094   2.15869   2.18769
 Alpha virt. eigenvalues --    2.20881   2.23647   2.27690   2.32871   2.34809
 Alpha virt. eigenvalues --    2.40049   2.44155   2.45331   2.48632   2.48881
 Alpha virt. eigenvalues --    2.49939   2.51806   2.53612   2.54396   2.56354
 Alpha virt. eigenvalues --    2.58156   2.58847   2.59496   2.61688   2.62579
 Alpha virt. eigenvalues --    2.65048   2.66810   2.72830   2.79165   2.81061
 Alpha virt. eigenvalues --    2.84111   2.86945   2.87353   2.93710   2.95697
 Alpha virt. eigenvalues --    2.99610   3.02831   3.05625   3.09359   3.14441
 Alpha virt. eigenvalues --    3.17634   3.21037   3.27410   3.31647   3.37002
 Alpha virt. eigenvalues --    3.43616   3.45161   3.62374   3.69842   3.74470
 Alpha virt. eigenvalues --    3.79756   3.83276   3.83632   3.84846   3.85832
 Alpha virt. eigenvalues --    3.86916   4.07404   4.12232   4.29373   4.31579
 Alpha virt. eigenvalues --    4.46238   5.18371   5.24552   5.39665   5.53608
 Alpha virt. eigenvalues --    5.81571   5.89689  23.72181  23.89418  23.97597
 Alpha virt. eigenvalues --   24.01080  24.02923  24.25308  49.94898  50.03190
          Condensed to atoms (all electrons):
               1          2          3          4          5          6
     1  O    7.894359   0.000894   0.614732  -0.353907  -0.145575   0.012848
     2  O    0.000894   7.922078  -0.193694   0.075932  -0.041315   0.509340
     3  C    0.614732  -0.193694  12.915359  -7.589702  -0.459066   1.821737
     4  C   -0.353907   0.075932  -7.589702  17.391789  -1.100565  -3.159749
     5  C   -0.145575  -0.041315  -0.459066  -1.100565   7.718161  -0.015559
     6  C    0.012848   0.509340   1.821737  -3.159749  -0.015559   8.281964
     7  C   -0.004461  -0.037105  -0.999892   0.342557  -0.191051  -1.271598
     8  C    0.107610   0.001169  -0.008689  -0.202087   0.040948  -0.007230
     9  H    0.005229   0.002689  -0.127439   0.481182  -0.032442  -0.058974
    10  H    0.008356   0.000173  -0.032291  -0.129696   0.507022  -0.001819
    11  H   -0.017975   0.000429   0.103772  -0.100794   0.347060   0.005236
    12  H    0.012776  -0.001091  -0.122676   0.068245   0.373480   0.016282
    13  H   -0.000633   0.013472   0.015416   0.052374  -0.001937  -0.103986
    14  H    0.000432  -0.013942   0.005599  -0.025431  -0.000330  -0.017996
    15  H    0.000751  -0.007318  -0.016537  -0.051919  -0.002598   0.045201
    16  H   -0.053694   0.001118  -0.022415   0.115927  -0.077049  -0.021960
    17  H   -0.043450  -0.001986  -0.031640  -0.035491   0.037766   0.005694
    18  H   -0.045095  -0.001268   0.013696  -0.010883   0.024232  -0.004226
               7          8          9         10         11         12
     1  O   -0.004461   0.107610   0.005229   0.008356  -0.017975   0.012776
     2  O   -0.037105   0.001169   0.002689   0.000173   0.000429  -0.001091
     3  C   -0.999892  -0.008689  -0.127439  -0.032291   0.103772  -0.122676
     4  C    0.342557  -0.202087   0.481182  -0.129696  -0.100794   0.068245
     5  C   -0.191051   0.040948  -0.032442   0.507022   0.347060   0.373480
     6  C   -1.271598  -0.007230  -0.058974  -0.001819   0.005236   0.016282
     7  C    7.726594  -0.016461   0.048438  -0.002078   0.000330  -0.006298
     8  C   -0.016461   5.425099  -0.000100  -0.009029   0.001390   0.000005
     9  H    0.048438  -0.000100   0.492649  -0.001401   0.001667  -0.008217
    10  H   -0.002078  -0.009029  -0.001401   0.490977  -0.065649  -0.022598
    11  H    0.000330   0.001390   0.001667  -0.065649   0.538527  -0.024340
    12  H   -0.006298   0.000005  -0.008217  -0.022598  -0.024340   0.483523
    13  H    0.363951  -0.001442  -0.009788  -0.000143  -0.000213   0.001580
    14  H    0.418496   0.000116  -0.000817   0.000036  -0.000213   0.000425
    15  H    0.387609  -0.000166  -0.002742  -0.000196   0.000466  -0.000418
    16  H    0.006672   0.385891   0.002018   0.004191  -0.014730   0.002320
    17  H    0.000372   0.409286  -0.000611  -0.003416   0.000342  -0.000756
    18  H   -0.005313   0.396974  -0.000679  -0.000640   0.000459   0.000108
              13         14         15         16         17         18
     1  O   -0.000633   0.000432   0.000751  -0.053694  -0.043450  -0.045095
     2  O    0.013472  -0.013942  -0.007318   0.001118  -0.001986  -0.001268
     3  C    0.015416   0.005599  -0.016537  -0.022415  -0.031640   0.013696
     4  C    0.052374  -0.025431  -0.051919   0.115927  -0.035491  -0.010883
     5  C   -0.001937  -0.000330  -0.002598  -0.077049   0.037766   0.024232
     6  C   -0.103986  -0.017996   0.045201  -0.021960   0.005694  -0.004226
     7  C    0.363951   0.418496   0.387609   0.006672   0.000372  -0.005313
     8  C   -0.001442   0.000116  -0.000166   0.385891   0.409286   0.396974
     9  H   -0.009788  -0.000817  -0.002742   0.002018  -0.000611  -0.000679
    10  H   -0.000143   0.000036  -0.000196   0.004191  -0.003416  -0.000640
    11  H   -0.000213  -0.000213   0.000466  -0.014730   0.000342   0.000459
    12  H    0.001580   0.000425  -0.000418   0.002320  -0.000756   0.000108
    13  H    0.557847  -0.041707  -0.030354   0.000573   0.000037  -0.000063
    14  H   -0.041707   0.472271  -0.019880   0.000313  -0.000107   0.000017
    15  H   -0.030354  -0.019880   0.465531  -0.000694   0.000116   0.000006
    16  H    0.000573   0.000313  -0.000694   0.552409  -0.071000  -0.015699
    17  H    0.000037  -0.000107   0.000116  -0.071000   0.586194  -0.035163
    18  H   -0.000063   0.000017   0.000006  -0.015699  -0.035163   0.456195
 Mulliken charges:
               1
     1  O    0.006802
     2  O   -0.229575
     3  C    0.113729
     4  C    0.232218
     5  C   -0.981182
     6  C   -0.035204
     7  C   -0.760764
     8  C   -0.523283
     9  H    0.209339
    10  H    0.258202
    11  H    0.224234
    12  H    0.227648
    13  H    0.185015
    14  H    0.222719
    15  H    0.233140
    16  H    0.205811
    17  H    0.183811
    18  H    0.227342
 Sum of Mulliken charges =  -0.00000
 Mulliken charges with hydrogens summed into heavy atoms:
               1
     1  O    0.006802
     2  O   -0.229575
     3  C    0.113729
     4  C    0.441557
     5  C   -0.271099
     6  C   -0.035204
     7  C   -0.119890
     8  C    0.093680
 Electronic spatial extent (au):  <R**2>=           1179.9485
 Charge=             -0.0000 electrons
 Dipole moment (field-independent basis, Debye):
    X=              1.6426    Y=              3.2198    Z=              1.7475  Tot=              4.0148
 Quadrupole moment (field-independent basis, Debye-Ang):
   XX=            -41.7787   YY=            -50.1976   ZZ=            -50.2594
   XY=             -4.2675   XZ=              0.4041   YZ=             -2.2245
 Traceless Quadrupole moment (field-independent basis, Debye-Ang):
   XX=              5.6332   YY=             -2.7857   ZZ=             -2.8475
   XY=             -4.2675   XZ=              0.4041   YZ=             -2.2245
 Octapole moment (field-independent basis, Debye-Ang**2):
  XXX=              2.3832  YYY=             -0.2047  ZZZ=             -0.6398  XYY=             12.2872
  XXY=              1.0662  XXZ=              2.3633  XZZ=             -0.5941  YZZ=             -3.0862
  YYZ=              1.8957  XYZ=             -1.5099
 Hexadecapole moment (field-independent basis, Debye-Ang**3):
 XXXX=          -1044.3980 YYYY=           -383.2514 ZZZZ=            -97.4633 XXXY=             -7.7617
 XXXZ=              1.1700 YYYX=            -20.6903 YYYZ=              0.1308 ZZZX=             -2.8485
 ZZZY=             -0.0037 XXYY=           -248.6106 XXZZ=           -192.3889 YYZZ=            -86.6488
 XXYZ=             -4.7922 YYXZ=             -0.5163 ZZXY=              3.3992
 N-N= 3.744538636665D+02 E-N=-1.647681458534D+03  KE= 3.833058027223D+02
 R6APFD:  NTU= -4 IXU= 1 FactS= 1.050
 Calling FoFJK, ICntrl=      2127 FMM=F ISym2X=0 I1Cent= 0 IOpClX= 0 NMat=1 NMatS=1 NMatT=0.
 ***** Axes restored to original set *****
 -------------------------------------------------------------------
 Center     Atomic                   Forces (Hartrees/Bohr)
 Number     Number              X              Y              Z
 -------------------------------------------------------------------
      1        8           0.014280827   -0.020273294    0.001781404
      2        8           0.008059272   -0.027828152    0.005546434
      3        6          -0.007168785    0.010631943   -0.001297664
      4        6           0.009024710    0.011807349   -0.003084623
      5        6          -0.000571527   -0.007404828   -0.000633276
      6        6          -0.015597340    0.030622797   -0.003676805
      7        6           0.002568192   -0.003716150   -0.008680758
      8        6          -0.008227199    0.008982010    0.001100713
      9        1          -0.003635696   -0.002510487   -0.002265668
     10        1          -0.001879420    0.002715005   -0.000063298
     11        1          -0.002725225    0.001074909    0.001019736
     12        1           0.001951323    0.001810837    0.001254692
     13        1           0.000649565   -0.002521534    0.003000929
     14        1           0.000707927    0.002821044    0.003143526
     15        1           0.001577083   -0.000202217    0.002138705
     16        1           0.001353921   -0.002378663    0.001425416
     17        1          -0.003079001   -0.002683651    0.001870307
     18        1           0.002711372   -0.000946918   -0.002579770
 -------------------------------------------------------------------
 Cartesian Forces:  Max     0.030622797 RMS     0.008073570

 GradGradGradGradGradGradGradGradGradGradGradGradGradGradGradGradGradGrad
 Berny optimization.
 FormGI is forming the generalized inverse of G from B-inverse, IUseBI=4.
 Internal  Forces:  Max     0.029200032 RMS     0.005098552
 Search for a local minimum.
 Step number   1 out of a maximum of   80
 All quantities printed in internal units (Hartrees-Bohrs-Radians)
 Mixed Optimization -- RFO/linear search
 Second derivative matrix not updated -- first step.
 ITU=  0
     Eigenvalues ---    0.00681   0.00759   0.00790   0.00868   0.01603
     Eigenvalues ---    0.01727   0.01899   0.01954   0.02859   0.07185
     Eigenvalues ---    0.07287   0.07308   0.07502   0.10002   0.10538
     Eigenvalues ---    0.16000   0.16000   0.16000   0.16000   0.16000
     Eigenvalues ---    0.16000   0.16000   0.16000   0.16000   0.16000
     Eigenvalues ---    0.22000   0.24992   0.25000   0.25000   0.25000
     Eigenvalues ---    0.25000   0.31713   0.32570   0.33202   0.34112
     Eigenvalues ---    0.34175   0.34235   0.34244   0.34311   0.34318
     Eigenvalues ---    0.34368   0.34422   0.34503   0.35277   0.44522
     Eigenvalues ---    0.49065   0.56808   0.91813
 RFO step:  Lambda=-5.55219606D-03 EMin= 6.81036521D-03
 Linear search not attempted -- first point.
 Iteration  1 RMS(Cart)=  0.08228407 RMS(Int)=  0.00320549
 Iteration  2 RMS(Cart)=  0.00401860 RMS(Int)=  0.00016781
 Iteration  3 RMS(Cart)=  0.00001360 RMS(Int)=  0.00016760
 Iteration  4 RMS(Cart)=  0.00000000 RMS(Int)=  0.00016760
 Variable       Old X    -DE/DX   Delta X   Delta X   Delta X     New X
                                 (Linear)    (Quad)   (Total)
    R1        2.60820  -0.01893   0.00000  -0.03814  -0.03814   2.57006
    R2        2.65835   0.00691   0.00000   0.01534   0.01534   2.67368
    R3        2.32108  -0.02920   0.00000  -0.03161  -0.03161   2.28947
    R4        2.53559   0.00050   0.00000   0.00087   0.00087   2.53646
    R5        2.83114   0.00369   0.00000   0.01115   0.01115   2.84228
    R6        2.81998  -0.00216   0.00000  -0.00641  -0.00641   2.81358
    R7        2.05228   0.00100   0.00000   0.00280   0.00280   2.05508
    R8        2.06935   0.00147   0.00000   0.00421   0.00421   2.07356
    R9        2.06796   0.00243   0.00000   0.00696   0.00696   2.07492
   R10        2.07035  -0.00104   0.00000  -0.00299  -0.00299   2.06736
   R11        2.84672   0.00630   0.00000   0.01954   0.01954   2.86626
   R12        2.06624   0.00177   0.00000   0.00506   0.00506   2.07130
   R13        2.06714   0.00002   0.00000   0.00004   0.00004   2.06718
   R14        2.06489   0.00241   0.00000   0.00688   0.00688   2.07176
   R15        2.07142   0.00211   0.00000   0.00609   0.00609   2.07751
   R16        2.06920   0.00365   0.00000   0.01050   0.01050   2.07970
   R17        2.06808  -0.00070   0.00000  -0.00200  -0.00200   2.06608
    A1        1.96568   0.00803   0.00000   0.03142   0.03142   1.99710
    A2        2.13440  -0.00445   0.00000  -0.01746  -0.01792   2.11648
    A3        2.01338   0.00208   0.00000   0.00811   0.00762   2.02100
    A4        2.13541   0.00237   0.00000   0.00925   0.00876   2.14416
    A5        2.15857   0.00874   0.00000   0.03874   0.03873   2.19730
    A6        2.09516  -0.00873   0.00000  -0.04571  -0.04572   2.04944
    A7        2.02946  -0.00000   0.00000   0.00700   0.00699   2.03645
    A8        1.92650  -0.00109   0.00000  -0.00724  -0.00726   1.91925
    A9        1.94006   0.00100   0.00000   0.00284   0.00282   1.94288
   A10        1.94907  -0.00269   0.00000  -0.01239  -0.01238   1.93669
   A11        1.89779  -0.00134   0.00000  -0.01541  -0.01545   1.88233
   A12        1.87176   0.00314   0.00000   0.02514   0.02515   1.89692
   A13        1.87623   0.00111   0.00000   0.00794   0.00795   1.88418
   A14        2.14043   0.00649   0.00000   0.02542   0.02542   2.16585
   A15        2.11133  -0.00318   0.00000  -0.01244  -0.01244   2.09889
   A16        2.03109  -0.00332   0.00000  -0.01297  -0.01297   2.01812
   A17        1.93903   0.00272   0.00000   0.02173   0.02152   1.96055
   A18        1.90564   0.00010   0.00000   0.00366   0.00337   1.90901
   A19        1.90911  -0.00003   0.00000  -0.00856  -0.00857   1.90053
   A20        1.87988   0.00181   0.00000   0.02756   0.02712   1.90700
   A21        1.91366  -0.00244   0.00000  -0.02030  -0.02025   1.89342
   A22        1.91628  -0.00218   0.00000  -0.02409  -0.02418   1.89211
   A23        1.95338  -0.00266   0.00000  -0.01827  -0.01837   1.93501
   A24        1.94206   0.00270   0.00000   0.01710   0.01714   1.95920
   A25        1.88734  -0.00481   0.00000  -0.02767  -0.02776   1.85958
   A26        1.92454  -0.00098   0.00000  -0.00828  -0.00826   1.91628
   A27        1.87884   0.00297   0.00000   0.01616   0.01592   1.89476
   A28        1.87443   0.00295   0.00000   0.02232   0.02238   1.89681
    D1       -2.09441  -0.00203   0.00000  -0.08347  -0.08322  -2.17763
    D2        1.04900  -0.00073   0.00000  -0.02665  -0.02691   1.02210
    D3        0.84206   0.00033   0.00000   0.01829   0.01808   0.86014
    D4       -1.31995   0.00156   0.00000   0.02986   0.02982  -1.29012
    D5        2.90864  -0.00064   0.00000   0.00980   0.01005   2.91870
    D6        0.00226   0.00299   0.00000   0.09720   0.09702   0.09929
    D7        3.13970   0.00312   0.00000   0.10197   0.10172  -3.04177
    D8       -3.14128   0.00161   0.00000   0.03642   0.03666  -3.10462
    D9       -0.00385   0.00173   0.00000   0.04119   0.04136   0.03751
   D10        0.81536  -0.00158   0.00000  -0.03141  -0.03161   0.78375
   D11       -1.29201   0.00017   0.00000  -0.00901  -0.00926  -1.30126
   D12        2.89589  -0.00011   0.00000  -0.01266  -0.01288   2.88300
   D13       -2.32440  -0.00028   0.00000   0.02547   0.02572  -2.29869
   D14        1.85141   0.00147   0.00000   0.04787   0.04807   1.89949
   D15       -0.24388   0.00119   0.00000   0.04422   0.04444  -0.19944
   D16        0.02872   0.00049   0.00000   0.02992   0.02996   0.05867
   D17       -3.14038   0.00040   0.00000   0.02996   0.03000  -3.11038
   D18       -3.10886   0.00039   0.00000   0.02544   0.02540  -3.08346
   D19        0.00522   0.00030   0.00000   0.02548   0.02545   0.03067
   D20       -2.69648  -0.00136   0.00000   0.00709   0.00690  -2.68958
   D21       -0.62563   0.00258   0.00000   0.05655   0.05668  -0.56895
   D22        1.47169  -0.00004   0.00000   0.02416   0.02422   1.49591
   D23        0.47213  -0.00144   0.00000   0.00641   0.00621   0.47834
   D24        2.54298   0.00251   0.00000   0.05586   0.05600   2.59897
   D25       -1.64288  -0.00011   0.00000   0.02347   0.02353  -1.61935
         Item               Value     Threshold  Converged?
 Maximum Force            0.029200     0.000450     NO 
 RMS     Force            0.005099     0.000300     NO 
 Maximum Displacement     0.304795     0.001800     NO 
 RMS     Displacement     0.082977     0.001200     NO 
 Predicted change in Energy=-2.955975D-03
 GradGradGradGradGradGradGradGradGradGradGradGradGradGradGradGradGradGrad

                          Input orientation:                          
 ---------------------------------------------------------------------
 Center     Atomic      Atomic             Coordinates (Angstroms)
 Number     Number       Type             X           Y           Z
 ---------------------------------------------------------------------
      1          8           0       -1.259494    0.735096   -0.409061
      2          8           0        1.438666    1.315272   -0.075409
      3          6           0       -0.873304   -0.527946   -0.084670
      4          6           0        0.422298   -0.841589    0.072303
      5          6           0       -1.976153   -1.546652    0.005851
      6          6           0        1.562224    0.115670    0.040813
      7          6           0        2.939490   -0.498631    0.203073
      8          6           0       -2.194012    1.308934    0.484915
      9          1           0        0.667878   -1.888077    0.237272
     10          1           0       -2.654672   -1.441305   -0.850037
     11          1           0       -2.566981   -1.415008    0.921929
     12          1           0       -1.571027   -2.562871    0.008934
     13          1           0        2.976604   -1.536387   -0.147770
     14          1           0        3.670104    0.096495   -0.352496
     15          1           0        3.213455   -0.480535    1.264466
     16          1           0       -1.860191    1.195844    1.526254
     17          1           0       -3.200677    0.879958    0.367571
     18          1           0       -2.237907    2.375233    0.247362
 ---------------------------------------------------------------------
                    Distance matrix (angstroms):
                    1          2          3          4          5
     1  O    0.000000
     2  O    2.779927   0.000000
     3  C    1.360017   2.956813   0.000000
     4  C    2.355010   2.388906   1.342236   0.000000
     5  C    2.427369   4.456254   1.504071   2.500820   0.000000
     6  C    2.923725   1.211537   2.522258   1.488881   3.909558
     7  C    4.419078   2.370711   3.823749   2.543811   5.029989
     8  C    1.414853   3.675643   2.332987   3.411757   2.903677
     9  H    3.318666   3.309581   2.080588   1.087502   2.676010
    10  H    2.622537   4.995416   2.143194   3.267739   1.097283
    11  H    2.846752   4.949173   2.160707   3.160136   1.098001
    12  H    3.338915   4.909721   2.153253   2.634421   1.094001
    13  H    4.813776   3.240749   3.980293   2.656248   4.955150
    14  H    4.971112   2.557638   4.593933   3.407154   5.891398
    15  H    4.928055   2.858333   4.303954   3.056496   5.445434
    16  H    2.078116   3.669066   2.557434   3.387457   3.137890
    17  H    2.095789   4.680730   2.757422   4.022046   2.742031
    18  H    2.019463   3.839906   3.225032   4.177952   3.938022
                    6          7          8          9         10
     6  C    0.000000
     7  C    1.516758   0.000000
     8  C    3.966159   5.449731   0.000000
     9  H    2.203055   2.663071   4.297979   0.000000
    10  H    4.582575   5.769950   3.091621   3.524370   0.000000
    11  H    4.491065   5.628296   2.783872   3.340188   1.774329
    12  H    4.122239   4.964226   3.950386   2.349507   1.780457
    13  H    2.182963   1.096087   5.935606   2.366888   5.675693
    14  H    2.144346   1.093906   6.046415   3.646877   6.528030
    15  H    2.139942   1.096330   5.748965   3.084844   6.311031
    16  H    3.884100   5.259181   1.099369   4.190844   3.637651
    17  H    4.834887   6.295174   1.100529   4.758646   2.677490
    18  H    4.425978   5.921696   1.093321   5.159408   3.992986
                   11         12         13         14         15
    11  H    0.000000
    12  H    1.772871   0.000000
    13  H    5.647152   4.664674   0.000000
    14  H    6.542937   5.888321   1.785822   0.000000
    15  H    5.865493   5.366913   1.779139   1.776530   0.000000
    16  H    2.771517   4.063719   5.801899   5.943268   5.349828
    17  H    2.444534   3.825892   6.653052   6.952694   6.617889
    18  H    3.863839   4.988632   6.530546   6.360587   6.237568
                   16         17         18
    16  H    0.000000
    17  H    1.799787   0.000000
    18  H    1.780222   1.782477   0.000000
 Stoichiometry    C6H10O2
 Framework group  C1[X(C6H10O2)]
 Deg. of freedom    48
 Full point group                 C1      NOp   1
 Largest Abelian subgroup         C1      NOp   1
 Largest concise Abelian subgroup C1      NOp   1
                         Standard orientation:                         
 ---------------------------------------------------------------------
 Center     Atomic      Atomic             Coordinates (Angstroms)
 Number     Number       Type             X           Y           Z
 ---------------------------------------------------------------------
      1          8           0        1.232518   -0.693510   -0.489911
      2          8           0       -1.447040   -1.358177   -0.164050
      3          6           0        0.811783    0.549570   -0.133005
      4          6           0       -0.491662    0.822300    0.035063
      5          6           0        1.885640    1.596587   -0.019795
      6          6           0       -1.604129   -0.165840   -0.017502
      7          6           0       -2.997698    0.404882    0.163590
      8          6           0        2.185803   -1.262736    0.387036
      9          1           0       -0.766231    1.856951    0.226816
     10          1           0        2.564087    1.531941   -0.879772
     11          1           0        2.482929    1.458934    0.891195
     12          1           0        1.451922    2.600506    0.009771
     13          1           0       -3.065314    1.449603   -0.161053
     14          1           0       -3.712974   -0.196682   -0.404856
     15          1           0       -3.267594    0.352524    1.224889
     16          1           0        1.852298   -1.185199    1.431724
     17          1           0        3.179535   -0.802566    0.277919
     18          1           0        2.259093   -2.321096    0.122737
 ---------------------------------------------------------------------
 Rotational constants (GHZ):           3.6809532           1.3030853           1.0085960
 Standard basis: 6-311++G(d,p) (5D, 7F)
 There are   254 symmetry adapted cartesian basis functions of A   symmetry.
 There are   246 symmetry adapted basis functions of A   symmetry.
   246 basis functions,   378 primitive gaussians,   254 cartesian basis functions
    31 alpha electrons       31 beta electrons
       nuclear repulsion energy       373.4720698909 Hartrees.
 NAtoms=   18 NActive=   18 NUniq=   18 SFac= 1.00D+00 NAtFMM=   60 NAOKFM=F Big=F
 Integral buffers will be    131072 words long.
 Raffenetti 2 integral format.
 Two-electron integral symmetry is turned on.
 R6APFD:  NTU= -4 IXU= 1 FactS= 1.050
 Nuclear repulsion after empirical dispersion term =      373.4619783484 Hartrees.
 One-electron integrals computed using PRISM.
 NBasis=   246 RedAO= T EigKep=  4.64D-06  NBF=   246
 NBsUse=   246 1.00D-06 EigRej= -1.00D+00 NBFU=   246
 Initial guess from the checkpoint file:  "ZMEO0169.chk"
 B after Tr=     0.000000    0.000000    0.000000
         Rot=    0.999997    0.000085   -0.001349   -0.002105 Ang=   0.29 deg.
 ExpMin= 3.60D-02 ExpMax= 8.59D+03 ExpMxC= 1.30D+03 IAcc=3 IRadAn=         5 AccDes= 0.00D+00
 Harris functional with IExCor= 1009 and IRadAn=       5 diagonalized for initial guess.
 HarFok:  IExCor= 1009 AccDes= 0.00D+00 IRadAn=         5 IDoV= 1 UseB2=F ITyADJ=14
 ICtDFT=  3500011 ScaDFX=  1.000000  1.000000  1.000000  1.000000
 FoFCou: FMM=F IPFlag=           0 FMFlag=      100000 FMFlg1=           0
         NFxFlg=           0 DoJE=T BraDBF=F KetDBF=T FulRan=T
         wScrn=  0.000000 ICntrl=       500 IOpCl=  0 I1Cent=   200000004 NGrid=           0
         NMat0=    1 NMatS0=      1 NMatT0=    0 NMatD0=    1 NMtDS0=    0 NMtDT0=    0
 Petite list used in FoFCou.
 Requested convergence on RMS density matrix=1.00D-08 within  32 cycles.
 Requested convergence on MAX density matrix=1.00D-06.
 Requested convergence on             energy=1.00D-06.
 No special actions if energy rises.
 SCF Done:  E(RM08HX) =  -385.062497821     A.U. after   14 cycles
            NFock= 14  Conv=0.69D-08     -V/T= 2.0045
 QCSCF skips out because SCF is already converged.
 R6APFD:  NTU= -4 IXU= 1 FactS= 1.050
 Calling FoFJK, ICntrl=      2127 FMM=F ISym2X=0 I1Cent= 0 IOpClX= 0 NMat=1 NMatS=1 NMatT=0.
 ***** Axes restored to original set *****
 -------------------------------------------------------------------
 Center     Atomic                   Forces (Hartrees/Bohr)
 Number     Number              X              Y              Z
 -------------------------------------------------------------------
      1        8           0.007241320   -0.006426948    0.003767015
      2        8          -0.000303840   -0.004751775    0.000917761
      3        6          -0.004101471    0.004595818   -0.004337659
      4        6           0.004100776    0.001927485   -0.000482377
      5        6          -0.000001734   -0.002612212    0.000894419
      6        6          -0.004442282    0.005946848   -0.001475364
      7        6           0.001082450   -0.002454563   -0.003191416
      8        6          -0.003895979    0.004425550    0.000324093
      9        1          -0.000414455   -0.000638176    0.000165568
     10        1          -0.000157456    0.000754661    0.000216114
     11        1          -0.000305463    0.000521195   -0.000059698
     12        1           0.000244310    0.000585999    0.000638504
     13        1          -0.000031394    0.000049232    0.001004698
     14        1          -0.000154942    0.000936637    0.001288011
     15        1           0.000271990   -0.000430249    0.000912077
     16        1           0.000059153   -0.000564637   -0.000360309
     17        1           0.000543835   -0.001122637    0.000127638
     18        1           0.000265182   -0.000742227   -0.000349076
 -------------------------------------------------------------------
 Cartesian Forces:  Max     0.007241320 RMS     0.002494358

 GradGradGradGradGradGradGradGradGradGradGradGradGradGradGradGradGradGrad
 Berny optimization.
 Using GEDIIS/GDIIS optimizer.
 FormGI is forming the generalized inverse of G from B-inverse, IUseBI=4.
 Internal  Forces:  Max     0.006148509 RMS     0.001504938
 Search for a local minimum.
 Step number   2 out of a maximum of   80
 All quantities printed in internal units (Hartrees-Bohrs-Radians)
 Mixed Optimization -- RFO/linear search
 Update second derivatives using D2CorX and points    1    2
 DE= -3.44D-03 DEPred=-2.96D-03 R= 1.16D+00
 TightC=F SS=  1.41D+00  RLast= 2.53D-01 DXNew= 5.0454D-01 7.5831D-01
 Trust test= 1.16D+00 RLast= 2.53D-01 DXMaxT set to 5.05D-01
 ITU=  1  0
 Use linear search instead of GDIIS.
     Eigenvalues ---    0.00668   0.00760   0.00788   0.00857   0.01573
     Eigenvalues ---    0.01753   0.01831   0.01875   0.02903   0.06936
     Eigenvalues ---    0.07237   0.07315   0.07518   0.09980   0.10701
     Eigenvalues ---    0.15440   0.16000   0.16000   0.16000   0.16000
     Eigenvalues ---    0.16000   0.16000   0.16000   0.16000   0.16264
     Eigenvalues ---    0.22622   0.23613   0.24983   0.24985   0.25000
     Eigenvalues ---    0.26696   0.31380   0.32487   0.33179   0.34136
     Eigenvalues ---    0.34165   0.34236   0.34288   0.34298   0.34361
     Eigenvalues ---    0.34382   0.34469   0.34746   0.35266   0.43728
     Eigenvalues ---    0.46881   0.56813   0.90167
 RFO step:  Lambda=-1.38930898D-03 EMin= 6.68417101D-03
 Quartic linear search produced a step of  0.28435.
 Iteration  1 RMS(Cart)=  0.08761412 RMS(Int)=  0.00393624
 Iteration  2 RMS(Cart)=  0.00522053 RMS(Int)=  0.00014784
 Iteration  3 RMS(Cart)=  0.00002020 RMS(Int)=  0.00014728
 Iteration  4 RMS(Cart)=  0.00000000 RMS(Int)=  0.00014728
 Variable       Old X    -DE/DX   Delta X   Delta X   Delta X     New X
                                 (Linear)    (Quad)   (Total)
    R1        2.57006  -0.00615  -0.01085  -0.01403  -0.02487   2.54519
    R2        2.67368   0.00265   0.00436   0.00679   0.01115   2.68483
    R3        2.28947  -0.00476  -0.00899  -0.00510  -0.01409   2.27539
    R4        2.53646  -0.00013   0.00025  -0.00034  -0.00009   2.53637
    R5        2.84228   0.00077   0.00317   0.00242   0.00559   2.84787
    R6        2.81358  -0.00318  -0.00182  -0.01183  -0.01365   2.79992
    R7        2.05508   0.00055   0.00080   0.00182   0.00262   2.05770
    R8        2.07356   0.00000   0.00120  -0.00021   0.00099   2.07455
    R9        2.07492   0.00018   0.00198   0.00029   0.00227   2.07719
   R10        2.06736  -0.00045  -0.00085  -0.00153  -0.00238   2.06499
   R11        2.86626   0.00183   0.00556   0.00631   0.01186   2.87812
   R12        2.07130  -0.00037   0.00144  -0.00162  -0.00018   2.07112
   R13        2.06718  -0.00025   0.00001  -0.00092  -0.00091   2.06627
   R14        2.07176   0.00094   0.00195   0.00312   0.00507   2.07684
   R15        2.07751  -0.00026   0.00173  -0.00130   0.00043   2.07794
   R16        2.07970  -0.00007   0.00299  -0.00082   0.00217   2.08187
   R17        2.06608  -0.00066  -0.00057  -0.00233  -0.00290   2.06318
    A1        1.99710   0.00400   0.00893   0.01858   0.02751   2.02462
    A2        2.11648  -0.00387  -0.00510  -0.01811  -0.02337   2.09310
    A3        2.02100   0.00274   0.00217   0.01388   0.01588   2.03688
    A4        2.14416   0.00115   0.00249   0.00583   0.00815   2.15231
    A5        2.19730  -0.00240   0.01101  -0.01597  -0.00498   2.19232
    A6        2.04944   0.00064  -0.01300   0.00514  -0.00789   2.04155
    A7        2.03645   0.00176   0.00199   0.01084   0.01280   2.04925
    A8        1.91925  -0.00044  -0.00206  -0.00293  -0.00503   1.91422
    A9        1.94288  -0.00035   0.00080  -0.00482  -0.00405   1.93884
   A10        1.93669  -0.00023  -0.00352   0.00075  -0.00277   1.93392
   A11        1.88233  -0.00011  -0.00439  -0.00343  -0.00788   1.87445
   A12        1.89692   0.00089   0.00715   0.00919   0.01635   1.91327
   A13        1.88418   0.00028   0.00226   0.00153   0.00379   1.88798
   A14        2.16585  -0.00029   0.00723  -0.00339   0.00320   2.16905
   A15        2.09889   0.00148  -0.00354   0.00768   0.00351   2.10240
   A16        2.01812  -0.00120  -0.00369  -0.00586  -0.01018   2.00794
   A17        1.96055   0.00057   0.00612   0.00506   0.01105   1.97160
   A18        1.90901  -0.00036   0.00096  -0.00146  -0.00069   1.90832
   A19        1.90053  -0.00008  -0.00244  -0.00360  -0.00606   1.89448
   A20        1.90700   0.00089   0.00771   0.01202   0.01946   1.92646
   A21        1.89342  -0.00067  -0.00576  -0.00701  -0.01273   1.88068
   A22        1.89211  -0.00039  -0.00688  -0.00550  -0.01245   1.87965
   A23        1.93501  -0.00052  -0.00522  -0.00394  -0.00924   1.92577
   A24        1.95920  -0.00111   0.00487  -0.01071  -0.00587   1.95332
   A25        1.85958  -0.00014  -0.00789   0.00228  -0.00566   1.85393
   A26        1.91628  -0.00001  -0.00235  -0.00267  -0.00510   1.91118
   A27        1.89476   0.00084   0.00453   0.00756   0.01200   1.90675
   A28        1.89681   0.00105   0.00636   0.00858   0.01495   1.91176
    D1       -2.17763  -0.00188  -0.02366  -0.10228  -0.12593  -2.30356
    D2        1.02210  -0.00226  -0.00765  -0.13251  -0.14017   0.88193
    D3        0.86014  -0.00016   0.00514   0.02252   0.02765   0.88779
    D4       -1.29012   0.00104   0.00848   0.03665   0.04507  -1.24506
    D5        2.91870   0.00048   0.00286   0.03080   0.03374   2.95243
    D6        0.09929   0.00042   0.02759   0.00482   0.03241   0.13170
    D7       -3.04177   0.00020   0.02892  -0.00964   0.01934  -3.02243
    D8       -3.10462   0.00085   0.01042   0.03742   0.04779  -3.05683
    D9        0.03751   0.00064   0.01176   0.02296   0.03472   0.07223
   D10        0.78375  -0.00018  -0.00899   0.02789   0.01894   0.80269
   D11       -1.30126   0.00047  -0.00263   0.03715   0.03451  -1.26675
   D12        2.88300   0.00050  -0.00366   0.03794   0.03429   2.91729
   D13       -2.29869  -0.00037   0.00731  -0.00200   0.00532  -2.29337
   D14        1.89949   0.00027   0.01367   0.00726   0.02089   1.92038
   D15       -0.19944   0.00030   0.01264   0.00805   0.02066  -0.17877
   D16        0.05867   0.00054   0.00852   0.07112   0.07960   0.13828
   D17       -3.11038   0.00009   0.00853   0.00507   0.01358  -3.09680
   D18       -3.08346   0.00075   0.00722   0.08548   0.09272  -2.99074
   D19        0.03067   0.00030   0.00724   0.01943   0.02670   0.05737
   D20       -2.68958  -0.00049   0.00196   0.00282   0.00467  -2.68491
   D21       -0.56895   0.00077   0.01612   0.02041   0.03661  -0.53234
   D22        1.49591   0.00004   0.00689   0.01082   0.01776   1.51367
   D23        0.47834  -0.00003   0.00177   0.06631   0.06795   0.54629
   D24        2.59897   0.00123   0.01592   0.08390   0.09989   2.69886
   D25       -1.61935   0.00050   0.00669   0.07432   0.08104  -1.53831
         Item               Value     Threshold  Converged?
 Maximum Force            0.006149     0.000450     NO 
 RMS     Force            0.001505     0.000300     NO 
 Maximum Displacement     0.293740     0.001800     NO 
 RMS     Displacement     0.089032     0.001200     NO 
 Predicted change in Energy=-9.585453D-04
 GradGradGradGradGradGradGradGradGradGradGradGradGradGradGradGradGradGrad

                          Input orientation:                          
 ---------------------------------------------------------------------
 Center     Atomic      Atomic             Coordinates (Angstroms)
 Number     Number       Type             X           Y           Z
 ---------------------------------------------------------------------
      1          8           0       -1.208354    0.740043   -0.363361
      2          8           0        1.446011    1.314219    0.069555
      3          6           0       -0.853536   -0.523344   -0.060087
      4          6           0        0.444015   -0.842320    0.066729
      5          6           0       -1.969062   -1.529179    0.062555
      6          6           0        1.573189    0.116937    0.057020
      7          6           0        2.955841   -0.513687    0.158136
      8          6           0       -2.234183    1.308459    0.438582
      9          1           0        0.682823   -1.896437    0.198949
     10          1           0       -2.660351   -1.419456   -0.783172
     11          1           0       -2.547684   -1.367755    0.983091
     12          1           0       -1.573039   -2.547429    0.083080
     13          1           0        3.007790   -1.506489   -0.303211
     14          1           0        3.692936    0.155393   -0.294194
     15          1           0        3.212773   -0.624153    1.220969
     16          1           0       -1.997274    1.186196    1.505371
     17          1           0       -3.217902    0.860097    0.226551
     18          1           0       -2.257693    2.372405    0.194738
 ---------------------------------------------------------------------
                    Distance matrix (angstroms):
                    1          2          3          4          5
     1  O    0.000000
     2  O    2.750045   0.000000
     3  C    1.346855   2.946415   0.000000
     4  C    2.327911   2.377954   1.342187   0.000000
     5  C    2.430935   4.443836   1.507031   2.508930   0.000000
     6  C    2.881312   1.204083   2.512502   1.481656   3.906055
     7  C    4.379990   2.372482   3.815635   2.534882   5.029416
     8  C    1.420752   3.698654   2.347415   3.454977   2.874695
     9  H    3.292987   3.302651   2.076748   1.088886   2.680667
    10  H    2.635901   5.006229   2.142533   3.269939   1.097805
    11  H    2.837173   4.896644   2.161339   3.172705   1.099203
    12  H    3.337630   4.901751   2.152928   2.641243   1.092743
    13  H    4.777697   3.245689   3.991932   2.674120   4.990325
    14  H    4.936521   2.554186   4.602815   3.417776   5.918046
    15  H    4.890551   2.864347   4.264520   3.007638   5.386316
    16  H    2.076923   3.732850   2.584826   3.484891   3.075024
    17  H    2.097783   4.688599   2.754323   4.041460   2.700950
    18  H    2.019207   3.853940   3.228306   4.201199   3.914478
                    6          7          8          9         10
     6  C    0.000000
     7  C    1.523035   0.000000
     8  C    4.007667   5.507741   0.000000
     9  H    2.206030   2.660878   4.340242   0.000000
    10  H    4.581406   5.766115   3.019242   3.516943   0.000000
    11  H    4.476998   5.630166   2.748981   3.366089   1.770608
    12  H    4.122896   4.965128   3.928277   2.350772   1.790240
    13  H    2.196214   1.095991   5.996037   2.410330   5.689091
    14  H    2.148990   1.093426   6.082537   3.676136   6.563803
    15  H    2.142948   1.099014   5.832361   3.010627   6.256410
    16  H    3.998655   5.407217   1.099596   4.288623   3.530797
    17  H    4.851348   6.325114   1.101676   4.776494   2.554754
    18  H    4.447669   5.959178   1.091785   5.183596   3.936579
                   11         12         13         14         15
    11  H    0.000000
    12  H    1.775269   0.000000
    13  H    5.704130   4.713467   0.000000
    14  H    6.549563   5.931111   1.797598   0.000000
    15  H    5.813122   5.281834   1.773037   1.770301   0.000000
    16  H    2.664281   4.017816   5.964242   6.056359   5.522937
    17  H    2.446399   3.786474   6.681363   6.966166   6.674237
    18  H    3.833327   4.968499   6.558893   6.369002   6.321274
                   16         17         18
    16  H    0.000000
    17  H    1.797680   0.000000
    18  H    1.786804   1.791673   0.000000
 Stoichiometry    C6H10O2
 Framework group  C1[X(C6H10O2)]
 Deg. of freedom    48
 Full point group                 C1      NOp   1
 Largest Abelian subgroup         C1      NOp   1
 Largest concise Abelian subgroup C1      NOp   1
                         Standard orientation:                         
 ---------------------------------------------------------------------
 Center     Atomic      Atomic             Coordinates (Angstroms)
 Number     Number       Type             X           Y           Z
 ---------------------------------------------------------------------
      1          8           0        1.196407   -0.685838   -0.471973
      2          8           0       -1.432883   -1.371206   -0.047884
      3          6           0        0.796723    0.553343   -0.127445
      4          6           0       -0.511080    0.819935    0.014142
      5          6           0        1.874992    1.595376    0.023031
      6          6           0       -1.604163   -0.179651   -0.021929
      7          6           0       -3.008618    0.395883    0.104177
      8          6           0        2.246326   -1.240976    0.307788
      9          1           0       -0.787942    1.859790    0.180638
     10          1           0        2.565790    1.538083   -0.828256
     11          1           0        2.463581    1.426458    0.935871
     12          1           0        1.441811    2.597122    0.077319
     13          1           0       -3.099338    1.400167   -0.325216
     14          1           0       -3.722714   -0.285376   -0.366496
     15          1           0       -3.264345    0.463127    1.170908
     16          1           0        2.010193   -1.161335    1.378774
     17          1           0        3.211822   -0.750055    0.106536
     18          1           0        2.307866   -2.295087    0.030195
 ---------------------------------------------------------------------
 Rotational constants (GHZ):           3.7505424           1.3004425           1.0046966
 Standard basis: 6-311++G(d,p) (5D, 7F)
 There are   254 symmetry adapted cartesian basis functions of A   symmetry.
 There are   246 symmetry adapted basis functions of A   symmetry.
   246 basis functions,   378 primitive gaussians,   254 cartesian basis functions
    31 alpha electrons       31 beta electrons
       nuclear repulsion energy       374.0294405932 Hartrees.
 NAtoms=   18 NActive=   18 NUniq=   18 SFac= 1.00D+00 NAtFMM=   60 NAOKFM=F Big=F
 Integral buffers will be    131072 words long.
 Raffenetti 2 integral format.
 Two-electron integral symmetry is turned on.
 R6APFD:  NTU= -4 IXU= 1 FactS= 1.050
 Nuclear repulsion after empirical dispersion term =      374.0193019849 Hartrees.
 One-electron integrals computed using PRISM.
 NBasis=   246 RedAO= T EigKep=  4.38D-06  NBF=   246
 NBsUse=   246 1.00D-06 EigRej= -1.00D+00 NBFU=   246
 Initial guess from the checkpoint file:  "ZMEO0169.chk"
 B after Tr=    -0.000000    0.000000    0.000000
         Rot=    0.999987    0.002513   -0.002068   -0.003847 Ang=   0.58 deg.
 ExpMin= 3.60D-02 ExpMax= 8.59D+03 ExpMxC= 1.30D+03 IAcc=3 IRadAn=         5 AccDes= 0.00D+00
 Harris functional with IExCor= 1009 and IRadAn=       5 diagonalized for initial guess.
 HarFok:  IExCor= 1009 AccDes= 0.00D+00 IRadAn=         5 IDoV= 1 UseB2=F ITyADJ=14
 ICtDFT=  3500011 ScaDFX=  1.000000  1.000000  1.000000  1.000000
 FoFCou: FMM=F IPFlag=           0 FMFlag=      100000 FMFlg1=           0
         NFxFlg=           0 DoJE=T BraDBF=F KetDBF=T FulRan=T
         wScrn=  0.000000 ICntrl=       500 IOpCl=  0 I1Cent=   200000004 NGrid=           0
         NMat0=    1 NMatS0=      1 NMatT0=    0 NMatD0=    1 NMtDS0=    0 NMtDT0=    0
 Petite list used in FoFCou.
 Requested convergence on RMS density matrix=1.00D-08 within  32 cycles.
 Requested convergence on MAX density matrix=1.00D-06.
 Requested convergence on             energy=1.00D-06.
 No special actions if energy rises.
 SCF Done:  E(RM08HX) =  -385.063514714     A.U. after   14 cycles
            NFock= 14  Conv=0.51D-08     -V/T= 2.0044
 QCSCF skips out because SCF is already converged.
 R6APFD:  NTU= -4 IXU= 1 FactS= 1.050
 Calling FoFJK, ICntrl=      2127 FMM=F ISym2X=0 I1Cent= 0 IOpClX= 0 NMat=1 NMatS=1 NMatT=0.
 ***** Axes restored to original set *****
 -------------------------------------------------------------------
 Center     Atomic                   Forces (Hartrees/Bohr)
 Number     Number              X              Y              Z
 -------------------------------------------------------------------
      1        8          -0.000041350    0.002148072    0.002539506
      2        8          -0.000649336    0.007312598   -0.002466362
      3        6          -0.003182899    0.001318010   -0.000048643
      4        6           0.001446520   -0.004454198   -0.002049345
      5        6           0.000538250    0.001098829    0.000657696
      6        6           0.001437202   -0.007163198    0.005851983
      7        6           0.000548043    0.000107380   -0.001346600
      8        6          -0.001050269   -0.001349982   -0.001398762
      9        1           0.000844749    0.000544683    0.000073602
     10        1           0.000111642   -0.000891281   -0.000048018
     11        1           0.000578405    0.000045540   -0.000350967
     12        1          -0.000110314    0.000021693   -0.000146122
     13        1          -0.000316181    0.000747150   -0.000503257
     14        1           0.000130642   -0.000154109   -0.000151541
     15        1          -0.000915601   -0.000164638   -0.000088759
     16        1          -0.000141400    0.000540111   -0.000480665
     17        1           0.001038291    0.000599885    0.000003919
     18        1          -0.000266394   -0.000306545   -0.000047664
 -------------------------------------------------------------------
 Cartesian Forces:  Max     0.007312598 RMS     0.001981025

 GradGradGradGradGradGradGradGradGradGradGradGradGradGradGradGradGradGrad
 Berny optimization.
 Using GEDIIS/GDIIS optimizer.
 FormGI is forming the generalized inverse of G from B-inverse, IUseBI=4.
 Internal  Forces:  Max     0.007313287 RMS     0.001244104
 Search for a local minimum.
 Step number   3 out of a maximum of   80
 All quantities printed in internal units (Hartrees-Bohrs-Radians)
 Mixed Optimization -- RFO/linear search
 Update second derivatives using D2CorX and points    1    2    3
 DE= -1.02D-03 DEPred=-9.59D-04 R= 1.06D+00
 TightC=F SS=  1.41D+00  RLast= 3.03D-01 DXNew= 8.4853D-01 9.0891D-01
 Trust test= 1.06D+00 RLast= 3.03D-01 DXMaxT set to 8.49D-01
 ITU=  1  1  0
 Use linear search instead of GDIIS.
     Eigenvalues ---    0.00451   0.00756   0.00813   0.01056   0.01308
     Eigenvalues ---    0.01633   0.01829   0.01905   0.02972   0.06993
     Eigenvalues ---    0.07262   0.07468   0.07713   0.10238   0.10746
     Eigenvalues ---    0.15721   0.15999   0.16000   0.16000   0.16000
     Eigenvalues ---    0.16000   0.16000   0.16000   0.16200   0.16818
     Eigenvalues ---    0.22488   0.23445   0.24979   0.25000   0.25885
     Eigenvalues ---    0.26709   0.31801   0.32732   0.33531   0.34136
     Eigenvalues ---    0.34161   0.34241   0.34289   0.34298   0.34373
     Eigenvalues ---    0.34397   0.34482   0.34893   0.35314   0.44572
     Eigenvalues ---    0.48149   0.57750   1.02987
 RFO step:  Lambda=-1.69069131D-03 EMin= 4.50573557D-03
 Quartic linear search produced a step of  0.13651.
 Iteration  1 RMS(Cart)=  0.14439749 RMS(Int)=  0.01018378
 Iteration  2 RMS(Cart)=  0.01748513 RMS(Int)=  0.00070367
 Iteration  3 RMS(Cart)=  0.00023641 RMS(Int)=  0.00069510
 Iteration  4 RMS(Cart)=  0.00000007 RMS(Int)=  0.00069510
 Variable       Old X    -DE/DX   Delta X   Delta X   Delta X     New X
                                 (Linear)    (Quad)   (Total)
    R1        2.54519   0.00152  -0.00340  -0.02067  -0.02407   2.52112
    R2        2.68483  -0.00099   0.00152   0.00806   0.00958   2.69441
    R3        2.27539   0.00731  -0.00192  -0.00744  -0.00937   2.26602
    R4        2.53637   0.00315  -0.00001   0.00573   0.00571   2.54208
    R5        2.84787  -0.00100   0.00076   0.00275   0.00351   2.85139
    R6        2.79992   0.00061  -0.00186  -0.00826  -0.01012   2.78980
    R7        2.05770  -0.00033   0.00036   0.00130   0.00166   2.05936
    R8        2.07455  -0.00012   0.00013   0.00112   0.00126   2.07581
    R9        2.07719  -0.00059   0.00031   0.00113   0.00144   2.07863
   R10        2.06499  -0.00006  -0.00032  -0.00233  -0.00265   2.06233
   R11        2.87812  -0.00086   0.00162   0.00886   0.01048   2.88860
   R12        2.07112  -0.00048  -0.00002  -0.00050  -0.00053   2.07059
   R13        2.06627   0.00006  -0.00012  -0.00041  -0.00054   2.06574
   R14        2.07684  -0.00028   0.00069   0.00383   0.00453   2.08136
   R15        2.07794  -0.00056   0.00006  -0.00015  -0.00009   2.07785
   R16        2.08187  -0.00117   0.00030   0.00005   0.00035   2.08222
   R17        2.06318  -0.00028  -0.00040  -0.00311  -0.00350   2.05967
    A1        2.02462   0.00196   0.00376   0.03200   0.03575   2.06037
    A2        2.09310   0.00149  -0.00319  -0.01298  -0.01622   2.07689
    A3        2.03688   0.00053   0.00217   0.01367   0.01577   2.05265
    A4        2.15231  -0.00204   0.00111  -0.00149  -0.00043   2.15188
    A5        2.19232  -0.00084  -0.00068   0.00074   0.00005   2.19237
    A6        2.04155   0.00140  -0.00108  -0.00618  -0.00727   2.03428
    A7        2.04925  -0.00056   0.00175   0.00541   0.00715   2.05640
    A8        1.91422   0.00096  -0.00069   0.00195   0.00125   1.91547
    A9        1.93884  -0.00049  -0.00055  -0.00462  -0.00519   1.93365
   A10        1.93392  -0.00010  -0.00038  -0.00608  -0.00646   1.92745
   A11        1.87445   0.00014  -0.00108  -0.00499  -0.00609   1.86836
   A12        1.91327  -0.00062   0.00223   0.01060   0.01284   1.92610
   A13        1.88798   0.00010   0.00052   0.00341   0.00391   1.89188
   A14        2.16905   0.00022   0.00044   0.01298   0.01006   2.17912
   A15        2.10240   0.00025   0.00048   0.00555   0.00271   2.10511
   A16        2.00794  -0.00032  -0.00139  -0.00564  -0.01036   1.99758
   A17        1.97160  -0.00073   0.00151   0.00567   0.00708   1.97868
   A18        1.90832   0.00054  -0.00009   0.00389   0.00367   1.91199
   A19        1.89448  -0.00087  -0.00083  -0.01054  -0.01138   1.88310
   A20        1.92646  -0.00010   0.00266   0.01587   0.01836   1.94482
   A21        1.88068   0.00066  -0.00174  -0.00905  -0.01079   1.86989
   A22        1.87965   0.00055  -0.00170  -0.00719  -0.00892   1.87073
   A23        1.92577   0.00054  -0.00126  -0.00568  -0.00698   1.91878
   A24        1.95332  -0.00020  -0.00080  -0.00155  -0.00238   1.95094
   A25        1.85393  -0.00002  -0.00077  -0.01000  -0.01079   1.84313
   A26        1.91118   0.00020  -0.00070  -0.00262  -0.00336   1.90782
   A27        1.90675  -0.00023   0.00164   0.00937   0.01098   1.91773
   A28        1.91176  -0.00032   0.00204   0.01087   0.01290   1.92466
    D1       -2.30356  -0.00233  -0.01719  -0.20086  -0.21805  -2.52162
    D2        0.88193  -0.00195  -0.01913  -0.18108  -0.20022   0.68171
    D3        0.88779   0.00045   0.00377   0.03690   0.04068   0.92847
    D4       -1.24506  -0.00005   0.00615   0.04535   0.05148  -1.19358
    D5        2.95243   0.00046   0.00461   0.03927   0.04390   2.99633
    D6        0.13170   0.00022   0.00442   0.04887   0.05320   0.18490
    D7       -3.02243   0.00028   0.00264   0.04554   0.04811  -2.97431
    D8       -3.05683  -0.00011   0.00652   0.02809   0.03469  -3.02214
    D9        0.07223  -0.00005   0.00474   0.02476   0.02960   0.10183
   D10        0.80269   0.00020   0.00259   0.00971   0.01225   0.81494
   D11       -1.26675  -0.00028   0.00471   0.01750   0.02215  -1.24459
   D12        2.91729  -0.00001   0.00468   0.02032   0.02494   2.94223
   D13       -2.29337   0.00050   0.00073   0.03053   0.03132  -2.26205
   D14        1.92038   0.00002   0.00285   0.03831   0.04122   1.96160
   D15       -0.17877   0.00029   0.00282   0.04114   0.04400  -0.13477
   D16        0.13828  -0.00065   0.01087  -0.02719  -0.01653   0.12175
   D17       -3.09680   0.00115   0.00185   0.13130   0.13333  -2.96347
   D18       -2.99074  -0.00072   0.01266  -0.02377  -0.01129  -3.00203
   D19        0.05737   0.00107   0.00364   0.13472   0.13857   0.19594
   D20       -2.68491   0.00120   0.00064   0.13158   0.13196  -2.55295
   D21       -0.53234   0.00095   0.00500   0.15891   0.16377  -0.36857
   D22        1.51367   0.00141   0.00242   0.14650   0.14874   1.66241
   D23        0.54629  -0.00052   0.00928  -0.02080  -0.01139   0.53490
   D24        2.69886  -0.00077   0.01364   0.00653   0.02041   2.71927
   D25       -1.53831  -0.00031   0.01106  -0.00588   0.00538  -1.53293
         Item               Value     Threshold  Converged?
 Maximum Force            0.007313     0.000450     NO 
 RMS     Force            0.001244     0.000300     NO 
 Maximum Displacement     0.535314     0.001800     NO 
 RMS     Displacement     0.150932     0.001200     NO 
 Predicted change in Energy=-1.049112D-03
 GradGradGradGradGradGradGradGradGradGradGradGradGradGradGradGradGradGrad

                          Input orientation:                          
 ---------------------------------------------------------------------
 Center     Atomic      Atomic             Coordinates (Angstroms)
 Number     Number       Type             X           Y           Z
 ---------------------------------------------------------------------
      1          8           0       -1.142714    0.765701   -0.241072
      2          8           0        1.499565    1.303991    0.274085
      3          6           0       -0.822660   -0.499238    0.037077
      4          6           0        0.475570   -0.834999    0.144093
      5          6           0       -1.947780   -1.499868    0.135040
      6          6           0        1.606757    0.112026    0.199020
      7          6           0        2.983958   -0.539379    0.074332
      8          6           0       -2.316978    1.307734    0.359149
      9          1           0        0.699612   -1.899390    0.210902
     10          1           0       -2.627936   -1.378395   -0.718933
     11          1           0       -2.540936   -1.332453    1.046118
     12          1           0       -1.552103   -2.516551    0.163634
     13          1           0        2.981152   -1.447996   -0.538032
     14          1           0        3.702545    0.193514   -0.301778
     15          1           0        3.313671   -0.829726    1.084327
     16          1           0       -2.280550    1.166189    1.448941
     17          1           0       -3.232288    0.840673   -0.038544
     18          1           0       -2.302585    2.371665    0.122941
 ---------------------------------------------------------------------
                    Distance matrix (angstroms):
                    1          2          3          4          5
     1  O    0.000000
     2  O    2.745320   0.000000
     3  C    1.334118   2.949668   0.000000
     4  C    2.308557   2.375025   1.345210   0.000000
     5  C    2.433597   4.445801   1.508891   2.512918   0.000000
     6  C    2.860168   1.199127   2.510366   1.476298   3.903463
     7  C    4.339600   2.375150   3.807012   2.526711   5.024765
     8  C    1.425820   3.817493   2.366826   3.526454   2.840627
     9  H    3.271262   3.302358   2.075561   1.089764   2.678443
    10  H    2.651676   5.021708   2.145574   3.266779   1.098471
    11  H    2.830925   4.885951   2.159834   3.187541   1.099966
    12  H    3.332351   4.890953   2.148873   2.634285   1.091340
    13  H    4.689873   3.229252   3.962308   2.668146   4.974946
    14  H    4.879305   2.533357   4.590448   3.416139   5.914772
    15  H    4.915428   2.915514   4.279626   2.989797   5.388238
    16  H    2.076344   3.960877   2.625347   3.647407   2.990807
    17  H    2.100705   4.764749   2.758149   4.073014   2.675486
    18  H    2.014182   3.952103   3.231042   4.242793   3.887775
                    6          7          8          9         10
     6  C    0.000000
     7  C    1.528581   0.000000
     8  C    4.105003   5.620753   0.000000
     9  H    2.206546   2.662051   4.405387   0.000000
    10  H    4.582206   5.729448   2.911056   3.494082   0.000000
    11  H    4.472969   5.665491   2.737275   3.394135   1.767791
[...]
 707,-0.0865255,-0.0692635,-0.0475461,0.1720217,-0.3941743,0.2012393,0.
 0027027,0.2379613,-0.0892922,0.0024155,-0.0030459,0.0031886,0.0631814,
 0.9099663,-0.2957928,-0.0848552,-0.2605507,0.369798,0.0471088,-0.04707
 1,0.0535381,0.3233476,0.0360735,0.0123404,0.0046924,-0.0071075,-0.0714
 855,0.008778,0.0006161,0.0063568,0.1466273,-0.0312194,-0.0224209,-0.05
 46296,-0.0516045,0.0702867,0.0440231,-0.0890167,0.0211247,-0.0109654,-
 0.0174246,-0.0159563,0.0530462,-0.0292605,0.0650724,-0.0512008,0.09182
 46,-0.0275055,-0.0134975,0.0470603,0.1009717,-0.0059956,0.0199441,-0.0
 441649,0.0080652,-0.0010502,0.0058126,0.0902131,0.0373373,-0.0009906,-
 0.0349383,0.0019058,0.0199333,-0.0766502,0.0145109,-0.0953057,-0.01871
 19,-0.0452423,-0.0292176,0.0052712,-0.1042682,0.0023102,0.0070144,0.00
 91032,0.0048747,0.0862921,0.0373648,0.0061335,0.0325817,0.0045154,0.03
 71188,0.0699601,-0.0178572,0.0893264,-0.0368154,-0.0585179,0.0654055,0
 .0139996,-0.0063434,0.054654,0.0710737,0.1087923,0.0114646,-0.1138077,
 -0.1104893,0.0333805,-0.0318765,-0.0719892,0.0281411,-0.0762544,-0.076
 844,-0.0684297,-0.029161,0.0476684,-0.0259569,0.0130875,0.071022,-0.08
 63028,0.0127853,0.0032589,0.0305806,0.0934463\Polar=111.2221479,-3.770
 0943,81.0362858,-2.5786926,-0.3802071,57.8652251\Quadrupole=4.6203427,
 -2.5108514,-2.1094914,-4.3551687,-0.3300946,0.5752308\PG=C01 [X(C6H10O
 2)]\NImag=0\\0.42481584,-0.13903630,0.48542328,-0.05478998,-0.01092633
 ,0.06984303,-0.00961793,-0.00017611,0.00086895,0.09136647,-0.00695106,
 0.01982526,-0.00212206,-0.04895942,0.80920944,0.00074675,-0.00056394,0
 .00159643,0.00064555,-0.03733951,0.02793811,-0.12199859,0.01350695,0.0
 1087266,0.00223365,0.02334610,-0.00129346,0.81888652,0.05946228,-0.315
 68834,0.01280951,0.00316313,-0.02424064,0.00085010,-0.07971481,0.60544
 981,0.00466840,0.02225228,-0.04882620,-0.00017520,0.00136837,-0.001821
 50,-0.02808881,-0.01840834,0.19531392,-0.01983095,0.05659604,-0.006418
 92,0.02060097,-0.04026250,0.00208358,-0.44677153,0.05756820,0.01580335
 ,0.76047669,0.05611743,-0.03031601,-0.00090334,-0.02877647,-0.04467389
 ,0.00397160,0.09792846,-0.13377394,-0.00073077,-0.09114538,0.66144291,
 -0.00282740,-0.00030859,0.01004384,0.00115305,0.00463274,0.01913800,0.
 01150829,0.00115639,-0.06332419,-0.01798757,-0.01999468,0.09949454,0.0
 1225497,0.00654633,-0.00064223,0.00020466,-0.00283647,0.00005974,-0.16
 576707,-0.06025979,0.00667858,-0.02867841,-0.02286314,0.00218863,0.530
 04901,-0.02102467,-0.04021114,0.00285599,-0.00032737,0.00068111,-0.000
 10810,-0.06084725,-0.13972511,0.00506221,0.00015654,0.00933985,0.00022
 836,-0.05500575,0.56270316,0.00164139,0.00421956,0.01040806,-0.0001099
 9,-0.00068563,-0.00177342,0.00740946,0.00316901,-0.08063474,-0.0004104
 1,0.00158080,0.01503201,0.00027784,-0.00144837,0.53387047,0.00992831,-
 0.02213907,0.00237135,-0.11033038,0.06382447,-0.00214476,-0.04538788,0
 .00197517,-0.00010200,-0.18472031,-0.06834183,0.00531755,0.00025559,0.
 00196368,0.00144214,0.52292774,0.00850057,-0.02740531,0.00369053,0.042
 65997,-0.73005433,0.03114051,-0.02300972,0.04788414,-0.00307821,-0.017
 04103,-0.13593212,0.00233099,0.00654737,-0.00199820,0.00129015,-0.0265
 2804,0.95805945,-0.00098569,0.00173417,-0.00577712,-0.00113825,0.03068
 639,-0.07180707,0.00275405,-0.00130991,0.00321368,0.00345502,0.0038421
 1,-0.07605901,0.00022102,0.00066280,0.01265270,-0.00584128,-0.03511565
 ,0.22692380,-0.00075361,0.00173969,-0.00016106,0.01346953,0.01056526,-
 0.00023861,-0.00022782,-0.00522279,0.00034175,-0.03089874,0.01100828,0
 .00059451,-0.00080194,0.00058502,-0.00005375,-0.18539137,0.02563566,0.
 00076425,0.49712970,0.00112923,-0.00048197,0.00021990,0.03195422,-0.02
 488790,0.00178923,-0.00534834,-0.00241592,0.00023716,-0.01442501,0.011
 97312,0.00039260,-0.00072464,0.00055129,0.00002696,0.02485357,-0.09020
 895,-0.00038945,0.07672661,0.54754130,-0.00009221,-0.00000585,0.001161
 50,-0.00113942,0.00233229,0.02518362,0.00035423,0.00002989,0.00147525,
 0.00168197,0.00016982,0.01726681,-0.00005263,-0.00017146,-0.00276643,0
 .00095106,-0.00041511,-0.08655218,-0.00342596,-0.00300144,0.52141210,-
 0.22566911,0.04260886,0.03305999,0.00106462,0.00260491,-0.00014798,-0.
 01568697,0.02729313,-0.00125570,0.00970663,-0.00406065,0.00065089,0.00
 275985,-0.00242684,-0.00016818,-0.00577642,-0.00441291,0.00033093,0.00
 076280,-0.00036968,-0.00000441,0.48223958,0.01796424,-0.08898352,-0.00
 169985,-0.00196620,-0.00092655,-0.00000355,0.04567333,-0.02570227,-0.0
 0697790,-0.00519054,-0.00391936,0.00051607,0.00240012,-0.00641337,-0.0
 0011682,0.00267888,0.00080490,-0.00028249,-0.00029083,0.00032953,0.000
 03192,0.03265933,0.61045791,0.03598889,-0.00947965,-0.06298471,-0.0005
 3961,0.00031533,0.00031882,-0.00464423,-0.00099128,-0.00809259,0.00127
 168,0.00177014,0.00328422,-0.00042593,0.00106090,-0.00050146,0.0000306
 0,-0.00075089,-0.00076498,-0.00007803,-0.00006484,-0.00036458,0.017803
 00,-0.01165959,0.56612729,-0.00678281,0.00071012,0.00109257,-0.0053952
 9,-0.00510187,0.00050594,-0.00140086,0.02966835,-0.00142594,-0.0651560
 5,0.05073813,-0.00107080,-0.00054485,0.00134865,-0.00032043,0.01107063
 ,-0.02188939,0.00050359,-0.00084529,0.00006995,0.00003449,0.00067372,0
 .00104327,-0.00041836,0.07146929,0.00137657,0.00200060,-0.00032951,-0.
 00498708,-0.00266459,0.00039883,-0.00273642,-0.00802553,0.00056441,0.0
 5452877,-0.32892101,0.01042230,-0.00134970,-0.00028292,-0.00021019,0.0
 1083386,-0.01319474,0.00013578,0.00046643,0.00081119,-0.00004431,-0.00
 059961,0.00004934,0.00044183,-0.05607667,0.34845035,0.00030602,-0.0005
 4505,0.00692863,0.00059022,0.00048554,0.00325805,0.00002807,-0.0008409
 7,-0.00111352,-0.00092172,0.01065631,-0.02604859,-0.00012757,-0.000387
 73,-0.00664233,-0.00085436,0.00132788,-0.00136887,-0.00000338,-0.00003
 857,0.00006675,0.00009650,0.00052513,0.00223216,0.00076968,-0.01128464
 ,0.02236440,0.00040042,0.00105060,0.00137857,-0.00015990,-0.00059910,-
 0.00025791,-0.01859743,0.00215270,-0.02029387,-0.00146207,-0.00316318,
 0.00175385,-0.13163319,0.00774454,-0.12712136,0.00033413,0.00100543,0.
 00218363,-0.00025230,-0.00017700,-0.00045095,0.00042085,0.00019194,-0.
 00011184,-0.00002512,-0.00019251,-0.00127855,0.14584644,0.00144958,0.0
 0054430,0.00209020,-0.00005591,-0.00066311,-0.00000689,-0.01229362,0.0
 0307992,-0.02117703,-0.00178677,-0.00190369,0.00147968,0.00614060,-0.0
 4760737,0.01055003,0.00063413,0.00143059,0.00109776,-0.00016980,-0.000
 06846,-0.00029154,-0.00058982,-0.00070172,-0.00092280,-0.00012020,0.00
 020786,-0.00009648,-0.00715578,0.04814922,-0.00005430,-0.00105319,-0.0
 0049532,-0.00003542,-0.00006872,0.00005771,0.00152577,-0.00066263,0.00
 410878,0.00091184,-0.00015558,-0.00024712,-0.12494997,0.01177756,-0.21
 714396,0.00015570,0.00003276,-0.00054220,0.00000365,-0.00000848,0.0001
 3068,-0.00117094,0.00070653,-0.00052553,0.00016502,-0.00004957,0.00020
 993,0.13745552,-0.01224173,0.23423239,0.00033052,0.00075659,-0.0012407
 7,-0.00010021,-0.00049037,0.00029190,-0.01789055,0.00562658,0.02014629
 ,-0.00143249,-0.00352717,-0.00107008,-0.12951005,0.02429816,0.12461794
 ,-0.00007725,0.00078002,-0.00206576,-0.00024865,-0.00019506,0.00042713
 ,0.00067633,0.00057398,0.00066828,0.00009486,-0.00011176,0.00114148,0.
 01137620,-0.00288747,-0.01560039,0.14300412,0.00145847,0.00012402,-0.0
 0211566,-0.00000051,-0.00051513,0.00007127,-0.01191157,0.00685402,0.02
 080913,-0.00171006,-0.00247975,-0.00114913,0.02302350,-0.05384689,-0.0
 3389460,0.00022619,0.00123064,-0.00125034,-0.00017376,-0.00009875,0.00
 030701,-0.00047925,-0.00129729,0.00152125,-0.00015551,0.00025778,0.000
 10143,-0.00068152,-0.00085056,0.00185380,-0.02543118,0.05570186,0.0001
 1579,0.00086237,-0.00012905,0.00005632,0.00015686,0.00004507,-0.000002
 01,0.00065667,0.00094199,-0.00055371,0.00047647,-0.00014708,0.12289655
 ,-0.03474638,-0.21520368,-0.00027848,-0.00026499,-0.00036247,0.0000222
 9,0.00002742,0.00007883,0.00107100,-0.00111363,0.00002400,-0.00013457,
 0.00000600,0.00022170,0.01539585,-0.00447003,-0.02029871,-0.13519128,0
 .03830568,0.23226105,-0.00391560,-0.00578157,0.00040696,0.00002319,0.0
 0028536,-0.00001720,0.01273231,-0.02335002,0.00129114,-0.00109876,-0.0
 0047426,0.00000386,-0.08846160,0.10335379,-0.00656612,0.00023763,-0.00
 024712,-0.00001631,0.00011843,0.00011989,0.00000005,-0.00199491,0.0013
 0854,-0.00011732,-0.00163432,-0.00058635,0.00017254,-0.00681730,0.0158
 1431,0.00094633,-0.00674637,0.01520947,-0.00305944,0.09685309,-0.00329
 750,-0.00252663,0.00003712,0.00002594,0.00049511,0.00000260,0.01296611
 ,-0.02044316,0.00110001,0.00108067,0.00076388,-0.00018562,0.09744492,-
 0.28142130,0.01555741,0.00005183,0.00010476,-0.00011521,0.00001503,0.0
 0007828,0.00001470,-0.00151244,0.00075829,0.00029759,-0.00066395,0.000
 96809,0.00009456,-0.00067653,0.00036589,-0.00017069,0.00047399,-0.0027
 3652,0.00043046,-0.10589409,0.30328861,0.00037524,0.00039558,0.0021866
 1,-0.00000750,-0.00003202,0.00010681,-0.00124788,0.00132730,-0.0030862
 1,-0.00001165,-0.00000634,-0.00069882,-0.00620393,0.01567332,-0.046090
 09,-0.00001800,-0.00004587,-0.00030447,-0.00000434,-0.00000701,0.00006
 697,0.00011318,-0.00027674,-0.00053883,0.00018372,0.00001446,0.0008404
 4,-0.00881593,0.02409908,-0.00065760,0.00883931,-0.02403079,0.00256189
 ,0.00666386,-0.01712416,0.04501149,-0.00009561,-0.00001847,-0.00028041
 ,-0.00413533,0.00280788,-0.00387244,0.00076407,-0.00013351,-0.00019507
 ,-0.00102510,-0.00095029,-0.00324644,-0.00002010,0.00001013,0.00056119
 ,0.00407621,0.01708794,0.02624121,-0.04817848,0.00928385,0.01690670,0.
 00007327,-0.00007617,0.00008169,-0.00065095,-0.00046945,0.00037699,0.0
 0009641,0.00006782,-0.00001078,-0.00008153,-0.00008298,-0.00002142,-0.
 00002353,-0.00003000,0.00001017,0.04700683,-0.00010600,0.00041018,-0.0
 0002054,0.00442712,-0.00152491,0.00222001,0.00054975,-0.00040174,0.000
 36017,-0.00095637,0.00052275,0.00158130,0.00000800,-0.00000147,-0.0002
 1034,-0.00180528,-0.01118059,-0.01183170,0.00803088,-0.14644454,-0.133
 42055,0.00002913,-0.00000710,-0.00006185,-0.00000160,0.00007838,-0.000
 12663,-0.00001705,-0.00004429,0.00000533,0.00003772,0.00001968,0.00000
 653,-0.00000741,-0.00001401,0.00000006,-0.01199389,0.15808463,-0.00012
 659,0.00019103,-0.00009856,-0.00000894,0.00086953,-0.00076952,0.000206
 33,0.00018235,0.00017370,0.00019850,-0.00062992,0.00034867,0.00004377,
 -0.00001501,0.00006688,-0.00167008,0.00176757,0.00120129,0.01396297,-0
 .13084763,-0.20244357,0.00001441,0.00001569,-0.00003026,0.00033058,0.0
 0030205,-0.00029845,0.00001139,0.00000519,-0.00000413,-0.00001639,0.00
 000824,-0.00000404,0.00001483,0.00001727,-0.00001155,-0.01447754,0.142
 79090,0.21954580,-0.00014460,0.00060240,-0.00005633,0.00550725,0.00019
 439,-0.00011543,-0.00042234,-0.00186256,0.00012559,-0.00495876,0.00455
 879,-0.00004586,-0.00035516,0.00023442,0.00000993,-0.02288709,-0.02512
 534,0.00173133,-0.19364706,-0.13583022,0.01030697,0.00020610,-0.000054
 61,-0.00002544,0.00045095,0.00011742,-0.00002942,-0.00009025,-0.000061
 98,-0.00000250,-0.00009948,-0.00006887,0.00001002,0.00003620,0.0000119
 2,-0.00000210,0.00270327,0.00367401,-0.00058314,0.21025440,-0.00025126
 ,0.00027544,-0.00001444,-0.00140630,0.00122744,-0.00008747,0.00075619,
 0.00046101,-0.00000576,0.00202089,-0.00160886,0.00013372,0.00013116,-0
 .00008613,-0.00002961,0.01356527,0.01118486,-0.00095253,-0.14091283,-0
 .17650460,0.00992629,0.00005380,-0.00001088,-0.00000591,0.00026715,0.0
 0026394,-0.00003047,0.00001359,0.00000774,-0.00000535,0.00002522,0.000
 02080,0.00000302,-0.00000553,0.00000721,-0.00000229,-0.01268155,-0.011
 16520,0.00316533,0.14911470,0.18566349,0.00003533,-0.00002393,-0.00002
 726,-0.00006088,-0.00010833,-0.00087061,-0.00002790,0.00003193,0.00050
 787,0.00005203,0.00008399,0.00194114,-0.00001108,-0.00001249,-0.000253
 88,-0.00024243,-0.00011896,-0.00154174,0.01061409,0.00978936,-0.047367
 32,-0.00001923,-0.00000182,-0.00003156,-0.00003483,-0.00002449,-0.0003
 5776,-0.00004485,-0.00004937,0.00001168,0.00004362,0.00005096,0.000002
 72,0.00000150,-0.00000061,-0.00001244,-0.01931305,-0.01587589,0.002440
 58,-0.01143941,-0.01065443,0.04548928,-0.00009541,-0.00000943,0.000181
 42,-0.00377980,0.00313454,0.00371596,0.00075646,-0.00025901,0.00023094
 ,-0.00100284,-0.00046694,0.00342166,-0.00007773,-0.00004517,-0.0005885
 0,0.00291924,0.01419456,-0.02794125,-0.04992671,0.01280266,-0.02551969
 ,0.00008415,-0.00006971,-0.00005674,-0.00063809,-0.00050458,-0.0003116
 8,-0.00009274,-0.00008483,0.00003512,0.00008737,0.00006864,0.00000243,
 -0.00001954,-0.00002481,-0.00000333,-0.00047257,-0.00185630,0.00211615
 ,0.00353935,-0.01066898,0.02043796,0.04874711,-0.00009073,0.00037312,-
 0.00011895,0.00419915,-0.00182496,-0.00231803,0.00052455,-0.00040120,-
 0.00029543,-0.00098188,0.00039830,-0.00148059,0.00002041,0.00001910,0.
 00017586,-0.00105300,-0.01004241,0.01311283,0.01194374,-0.12011181,0.1
 2452776,0.00003103,0.00000369,0.00010823,-0.00001890,0.00003759,0.0000
 8509,0.00003659,0.00001452,-0.00000931,-0.00000874,-0.00004067,-0.0000
 0060,-0.00001137,-0.00001696,0.00000338,-0.00283755,0.01166289,-0.0178
 2334,0.00448377,-0.00974034,0.01691581,-0.01622967,0.12966279,0.000155
 35,-0.00022904,-0.00009071,-0.00029477,-0.00092404,-0.00061388,-0.0002
 9500,-0.00008095,0.00020537,-0.00000991,0.00062243,0.00031762,-0.00003
 628,0.00002287,0.00008485,0.00164431,-0.00120010,0.00119185,-0.0224273
 1,0.12190215,-0.22738833,-0.00002770,-0.00002722,-0.00001733,-0.000309
 90,-0.00030142,-0.00026838,0.00001950,-0.00000288,-0.00000327,-0.00001
 335,-0.00000763,-0.00000190,-0.00001336,-0.00001687,-0.00000703,-0.002
 75448,0.01457400,-0.02012415,0.00008809,-0.00144707,0.00006771,0.02425
 788,-0.13287832,0.24665474,-0.01857856,0.00192330,0.02961609,-0.000344
 85,-0.00063331,-0.00017574,0.00242909,-0.00722330,0.00220641,-0.002101
 39,0.00069835,-0.00084430,0.00016022,0.00061829,0.00002675,0.00117038,
 0.00085501,0.00020202,-0.00012525,0.00008698,0.00008904,-0.06028065,-0
 .01101017,0.04963593,-0.00006865,0.00002773,-0.00034593,0.00014927,0.0
 0010159,-0.00015330,0.00047692,0.00042388,0.00018031,-0.00002592,-0.00
 001752,-0.00005902,-0.00003603,0.00000567,-0.00000459,-0.00003455,-0.0
 0001022,0.00000739,-0.00000658,-0.00001415,0.00000657,0.06925134,0.006
 33031,0.00209643,-0.01196165,-0.00001739,0.00005673,-0.00000857,-0.000
 24680,0.00220138,-0.00200966,0.00070001,-0.00018761,0.00047820,0.00009
 643,-0.00031380,-0.00033451,-0.00015856,-0.00012525,-0.00015607,-0.000
 00549,-0.00004429,-0.00000660,-0.01363529,-0.06245570,0.05408704,0.000
 02853,-0.00000009,0.00019900,-0.00005720,0.00018496,0.00004468,0.00020
 288,-0.00206541,-0.00027145,-0.00010126,0.00009925,0.00018106,0.000014
 11,-0.00000413,-0.00000593,-0.00000565,-0.00000010,0.00000178,0.000010
 33,0.00001025,-0.00000068,0.01061675,0.06088907,0.00482847,-0.00417156
 ,0.00462633,0.00016218,0.00026132,0.00009845,-0.00019459,0.00371212,0.
 00005994,0.00077084,-0.00079077,-0.00022862,-0.00004262,0.00037037,-0.
 00056034,-0.00073908,-0.00042587,-0.00005137,0.00007839,-0.00006456,-0
 .00000645,0.05427426,0.05120321,-0.28226036,0.00009678,-0.00003230,0.0
 0001929,0.00012949,0.00012380,0.00001074,-0.00029492,-0.00057397,0.000
 73692,-0.00029514,-0.00000696,0.00039556,0.00000794,0.00001007,0.00000
 056,0.00001757,0.00000747,-0.00000256,0.00001537,0.00000305,0.00000139
 ,-0.06246855,-0.05565747,0.29685622,-0.02788771,-0.00338651,-0.0135136
 0,-0.00068651,-0.00024022,0.00019138,0.00165689,-0.00830468,-0.0007118
 8,-0.00120168,0.00104471,0.00043719,0.00050553,0.00031735,-0.00086466,
 0.00109714,0.00014616,-0.00034693,-0.00012918,0.00011267,-0.00006648,-
 0.14500278,-0.06777589,-0.10037584,-0.00013400,0.00014794,0.00040235,0
 .00049464,0.00087942,0.00040575,0.00002354,0.00033533,-0.00002266,0.00
 032001,-0.00002005,0.00026888,-0.00001451,-0.00000653,0.00000158,-0.00
 002554,-0.00001072,0.00000002,-0.00003241,0.00001392,-0.00000300,0.007
 13046,0.00286213,0.00422518,0.16232023,0.01072835,0.00621100,0.0085509
 3,0.00007584,0.00005821,0.00001221,0.00059609,0.00220464,0.00121591,0.
 00016666,-0.00019144,-0.00024186,0.00050917,-0.00135537,0.00026927,-0.
 00005573,-0.00000391,0.00010662,-0.00002231,-0.00002258,0.00001528,-0.
 07318376,-0.10199494,-0.07567217,0.00000257,-0.00004736,-0.00014029,0.
 00052803,-0.00226586,-0.00012694,-0.00016883,-0.00033620,0.00010871,0.
 00027761,0.00024016,-0.00015172,0.00000231,0.00000846,0.00000012,-0.00
 000845,-0.00000142,-0.00000266,0.00000901,-0.00000454,0.00000241,0.004
 57030,0.00326436,0.00597819,0.07454060,0.10472763,0.00794760,0.0064860
 9,0.01009367,0.00006448,0.00015944,0.00002654,-0.00021868,-0.00109629,
 0.00075696,0.00008835,0.00037630,-0.00028236,-0.00007949,-0.00088813,0
 .00006470,-0.00000529,-0.00012771,-0.00000278,0.00000487,0.00002954,0.
 00002023,-0.10386297,-0.07431850,-0.15961897,-0.00007019,0.00000604,-0
 .00006329,-0.00000427,-0.00029445,0.00086768,-0.00038012,0.00010930,-0
 .00091094,0.00054674,0.00005192,-0.00002869,-0.00000919,0.00000184,0.0
 0000700,0.00000748,-0.00000156,-0.00000039,0.00000259,-0.00000964,-0.0
 0000406,-0.01835078,-0.01445153,-0.01700157,0.11001115,0.08121126,0.16
 223748,-0.01235957,0.04450660,-0.00274522,0.00007986,-0.00068858,0.000
 02273,-0.00530797,-0.00057906,0.00075603,-0.00044520,0.00167516,0.0000
 6296,-0.00033973,-0.00095353,0.00021676,0.00055370,0.00084087,-0.00005
 157,-0.00005406,-0.00006968,0.00000009,-0.04425708,-0.01805952,0.00131
 325,-0.00048317,0.00011540,-0.00001125,0.00001195,0.00011873,0.0003729
 2,0.00011671,-0.00005030,-0.00048699,0.00041699,0.00006648,-0.00008068
 ,0.00001369,-0.00001185,-0.00001327,-0.00003268,-0.00000060,0.00000175
 ,0.00001074,-0.00000718,0.00001337,0.00083475,-0.00663384,-0.00057157,
 0.00156587,-0.01856749,0.00430770,0.05967520,0.00624050,-0.01167068,-0
 .00004183,0.00016740,0.00042272,-0.00002030,0.00026100,0.00268294,-0.0
 0028654,0.00068175,-0.00053313,0.00000812,0.00017148,-0.00003144,0.000
 09102,-0.00052554,-0.00055353,0.00002489,0.00008121,0.00000506,0.00000
 191,-0.00400994,-0.31999096,0.04000667,0.00015137,0.00001113,0.0000159
 0,-0.00000356,0.00012007,0.00013154,0.00004545,0.00005838,-0.00017313,
 0.00009001,-0.00001097,-0.00001729,-0.00000020,0.00000102,0.00000657,0
 .00002587,0.00000561,-0.00000085,-0.00000032,0.00000066,-0.00000765,-0
 .00101920,-0.00360605,0.00005385,-0.00065564,-0.01049084,0.00275607,-0
 .00170163,0.34358001,0.00206694,-0.00883394,0.00154084,-0.00003075,0.0
 0001249,-0.00011161,0.00135370,-0.00053488,0.00014149,-0.00000324,-0.0
 0033856,0.00016895,0.00020560,0.00006327,-0.00060935,-0.00001697,-0.00
 003702,-0.00004908,0.00000567,0.00000764,0.00002609,-0.00075705,0.0434
 7956,-0.05625532,0.00010264,-0.00001527,0.00001984,0.00005173,0.000107
 46,0.00028824,-0.00030289,-0.00011593,0.00018368,0.00003707,0.00001649
 ,0.00026596,-0.00000508,-0.00000272,-0.00000026,0.00000263,0.00000105,
 0.00000456,0.00000372,0.00000219,-0.00000450,0.00043170,0.02987237,-0.
 00269413,-0.00003842,-0.02113524,0.00383879,-0.00310700,-0.04254897,0.
 05324578\\0.00000139,-0.00000684,0.00000192,-0.00000111,0.00000258,-0.
 00000009,-0.00000151,0.00001168,0.00000116,0.00000054,0.00000034,-0.00
 000119,-0.00000051,-0.00000091,0.00000102,-0.00000129,-0.00000703,0.00
 000003,0.00000063,0.00000066,0.00000001,0.00000497,-0.00000033,-0.0000
 0234,-0.00000093,0.00000018,0.00000011,-0.00000072,0.00000024,-0.00000
 133,-0.00000074,0.00000048,-0.00000046,-0.00000116,-0.00000015,0.00000
 111,-0.00000019,-0.00000102,0.00000116,0.00000067,-0.00000127,0.000001
 22,0.00000014,0.00000003,0.00000121,0.00000042,0.00000063,-0.00000040,
 -0.00000039,0.,-0.00000118,-0.00000023,0.00000074,-0.00000196\\\@


 ONE THORN OF EXPERIENCE IS WORTH A WHOLE WILDERNESS OF
 WARNING....  LOWELL - AMONG MY BOOKS
 Job cpu time:       0 days  1 hours 41 minutes 53.1 seconds.
 Elapsed time:       0 days  0 hours  6 minutes 24.4 seconds.
 File lengths (MBytes):  RWF=    104 Int=      0 D2E=      0 Chk=      6 Scr=      1
 Normal termination of Gaussian 16 at Sun Sep 28 02:32:12 2025.
